14
Properties=species:S:1:pos:R:3 energy=-4305.138647313924 name=nbu_straight smiles=CCCC config_type=start_0 pbc="F F F"
C       -1.88288434      -0.16811426      -0.17705966
C       -0.89195907      -0.12649902       0.71016840
C        0.70457375      -0.15909388      -0.11782715
C        2.10635977       0.23048440       0.85973072
H       -2.77927811      -0.38075785       0.40810674
H       -2.42040967       0.80118765      -0.65381377
H       -2.10934651      -0.63347491      -0.95290626
H       -1.02879586       0.57704493       1.54103177
H       -0.50836852      -1.49573271       1.10966546
H        0.67768931      -0.99930885      -0.99014438
H        0.79952056       0.77590223      -0.58685473
H        2.02063193       0.94290366       1.68009411
H        2.21747486      -0.57295855       1.36671409
H        3.21250526       0.41170632       0.26469022
14
Properties=species:S:1:pos:R:3 energy=-4305.138647313924 name=nbu_straight smiles=CCCC config_type=start_1 pbc="F F F"
C       -1.89584166      -0.18783974      -0.18015234
C       -0.38393693      -0.30628698       0.69080560
C        0.60076225       0.35645588      -0.00881685
C        1.70189423      -0.11063640       0.77166928
H       -2.82218589      -0.43871415       0.39537126
H       -1.63405233       0.84003635      -0.61390023
H       -1.53222749      -1.18890109      -1.05522374
H       -0.47053414       0.42801107       1.53109823
H       -0.58369148      -0.93549329       1.23059054
H        0.85080069      -0.24078715      -0.80802162
H        0.32219944       1.42015977      -0.47855927
H        1.65055207       0.64279034       1.60273989
H        1.86653314      -1.30469145       1.17446791
H        2.41843074       0.17206768       0.20609578
14
Properties=species:S:1:pos:R:3 energy=-4305.138647313924 name=nbu_straight smiles=CCCC config_type=start_2 pbc="F F F"
C       -1.79089590      -0.15236232      -0.15173672
C       -0.68796695      -0.27826509       0.96979252
C        0.66776067       0.17412138      -0.50091570
C        1.82213231       0.00424503       0.98619857
H       -2.38120607      -0.28993351       0.48526340
H       -1.93537383       0.81938964      -0.46559662
H       -1.80224836      -1.00967207      -0.40028802
H       -1.12711358       0.35038841       1.75687293
H       -0.85602183      -1.21879169       0.66103486
H        0.91927188      -0.48675947      -1.45603151
H        0.68997517       1.23181181      -1.13707387
H        1.42269386       0.63321057       1.75963241
H        2.02860836      -1.01826297       1.77990019
H        2.85413315       0.30169100       0.23027540
14
Properties=species:S:1:pos:R:3 energy=-4305.138647313924 name=nbu_straight smiles=CCCC config_type=start_3 pbc="F F F"
C       -1.98783010      -0.20359168      -0.20547528
C       -0.58792905      -0.15452091       0.43118148
C        0.63757533       0.02324062       0.37427170
C        1.98612169       0.11560297       0.64520143
H       -3.22025793      -0.52953849       0.31821460
H       -2.11908817       0.82183436      -0.80211738
H       -1.83932564      -0.81270393      -1.60784198
H       -0.37221642       0.65466759       1.31525707
H       -0.23603817      -1.21243431       1.67922114
H        0.60921812      -0.75333653      -0.34213449
H        0.43174483       0.96425019       0.07165987
H        2.24849014       0.95248343       1.52320159
H        2.05539964      -0.85938703       0.76128181
H        2.77680285       0.28208300       0.24051060
14
Properties=species:S:1:pos:R:3 energy=-4305.138647313924 name=nbu_straight smiles=CCCC config_type=start_4 pbc="F F F"
C       -3.06810510       1.22790762      -1.11282363
C       -1.81443561       1.20906186      -0.26993935
C       -0.53433870       1.53119732      -1.01561657
C        0.70283947       1.46987971      -0.06134678
H       -3.95713114       0.95738495      -0.53493417
H       -3.18557437       2.24262690      -1.64618049
H       -2.99025501       0.49368793      -1.96107106
H       -1.94983786       1.96704994       0.56648838
H       -1.75623824       0.25885207       0.21959604
H       -0.40604643       0.80732922      -1.89470197
H       -0.62653323       2.51463098      -1.45759764
H        0.61235711       2.24103372       0.76899755
H        0.84683943       0.45116660       0.40607739
H        1.61274042       1.68685098      -0.61514318
14
Properties=species:S:1:pos:R:3 energy=-4305.138647313924 name=nbu_straight smiles=CCCC config_type=start_5 pbc="F F F"
C       -0.71062090      -1.58386162       0.75561163
C        0.53853961      -1.64184786       1.67091335
C        1.83967470      -1.33383532       0.88897257
C        3.10541453      -1.35003171       1.69274678
H       -1.64433286      -1.77685695       1.33841217
H       -0.86888763      -0.60140290       0.37846649
H       -0.65131899      -2.31606393      -0.04705894
H        0.45050786      -0.96199394       2.50564162
H        0.66417824      -2.69007807       2.12065996
H        1.93453643      -2.04742522       0.09653597
H        1.74825323      -0.31856898       0.39218364
H        3.05882689      -0.65533972       2.51383645
H        3.23716857      -2.32881660       2.13510461
H        4.01819558      -1.10307698       1.08592918
14
Properties=species:S:1:pos:R:3 energy=-4305.138647313924 name=nbu_straight smiles=CCCC config_type=start_6 pbc="F F F"
C       -2.25065621      -1.96567285      -2.43790607
C       -1.02656427      -2.00169190      -1.54724848
C        0.29413861      -1.71450326      -2.33788266
C        1.55798183      -1.71618261      -1.44265986
H       -3.15466629      -2.18858415      -1.85532391
H       -2.42601442      -0.97210920      -2.88224570
H       -2.21127988      -2.67879818      -3.24020302
H       -1.14699894      -1.29100347      -0.71354993
H       -0.91152811      -3.03851933      -1.10715612
H        0.39539507      -2.44136278      -3.17409411
H        0.22159506      -0.71692515      -2.81552697
H        1.48205757      -0.99183695      -0.61925034
H        1.69455984      -2.69621043      -0.97601382
H        2.48953156      -1.48535748      -2.03157041
14
Properties=species:S:1:pos:R:3 energy=-4305.138647313924 name=nbu_straight smiles=CCCC config_type=start_7 pbc="F F F"
C       -1.52806979       1.60971885       2.08069407
C       -0.24933173       1.56890590       2.94822248
C        1.01119739       1.91186526       2.21123866
C        2.25027217       1.83603061       3.07405986
H       -2.44679771       1.36911215       2.65880191
H       -1.62844758       2.61333320       1.61453170
H       -1.43029412       0.85642218       1.23207302
H       -0.35233106       2.29605947       3.78567993
H       -0.18053189       0.60729333       3.44741212
H        1.13309493       1.20126678       1.37592811
H        0.90012494       2.91298715       1.75011297
H        2.18912643       2.57753095       3.90208434
H        2.38944816       0.81856043       3.51719582
H        3.14140444       2.06913148       2.50235641
14
Properties=species:S:1:pos:R:3 energy=-4305.138647313924 name=nbu_straight smiles=CCCC config_type=start_8 pbc="F F F"
C       -3.26380624      -0.83012325       0.55098129
C       -2.00064870      -0.85320297       1.39583675
C       -0.70352822      -0.58089624       0.74671136
C        0.57507207      -0.57083308       1.51164784
H       -4.23391034      -1.06956843       1.12231054
H       -3.42417986       0.16870970       0.08473093
H       -3.19812096      -1.52873317      -0.36586644
H       -2.05369657      -0.12677802       2.23926728
H       -1.84253821      -1.89145721       1.99173730
H       -0.62618159      -1.31450342      -0.06158238
H       -0.80542524       0.40854923       0.30021140
H        0.56654051       0.17123296       2.34510767
H        0.69863965      -1.55157111       1.90885087
H        1.47609680      -0.34968944       0.95532513
14
Properties=species:S:1:pos:R:3 energy=-4305.138647313924 name=nbu_straight smiles=CCCC config_type=start_9 pbc="F F F"
C       -0.51491976       0.47416925      -0.90819329
C        0.72475270       0.42041697       0.00513725
C        2.00886422       0.77825824      -0.87335536
C        3.23318193       0.69068108       0.11975216
H       -1.36755366       0.25009643      -0.31883254
H       -0.63028214       1.47251430      -1.35244493
H       -0.44345304      -0.29364283      -1.64226356
H        0.55436657       1.13183402       0.83286272
H        0.75047821      -0.53976879       0.34851870
H        2.15467159       0.07440742      -1.73658362
H        1.92714524       1.78751277      -1.36562540
H        3.10464349       1.41446104       0.93772633
H        3.38536835      -0.32607889       0.63233113
H        4.15483920       0.93346344      -0.48453913
14
Properties=species:S:1:pos:R:3 energy=-4305.138647313924 name=nbu_straight smiles=CCCC config_type=start_10 pbc="F F F"
C       -1.92097754      -0.07671048      -0.17238324
C       -0.65903809      -0.28982556       1.01234809
C        0.65033782       0.08517497      -0.01950203
C        1.94641878       0.07841039       0.44307986
H       -2.92157001      -0.02018418       0.43653904
H       -2.11191850       0.80954890      -0.04486269
H       -1.86787696      -0.89175400      -0.72075192
H       -0.67226866       0.13912507       1.83215225
H       -0.45495459      -1.52629347       1.18827852
H        0.70616552      -0.56134112      -0.57780854
H        0.54632803       1.21813508      -0.70974433
H        1.96442112       0.52670905       1.22648362
H        2.06233717      -0.83082572       0.87136558
H        2.84929090       0.44049722      -0.35616293
14
Properties=species:S:1:pos:R:3 energy=-4305.138647313924 name=nbu_straight smiles=CCCC config_type=start_11 pbc="F F F"
C       -1.85774846      -0.27924352      -0.18482876
C       -0.61685791      -0.14296044       0.38862591
C        0.65499818       0.11218703      -0.10714197
C        1.86183522       0.04143761       1.18832014
H       -2.67989399      -0.79928782       0.36693896
H       -1.94254350       0.83167510      -1.22285131
H       -1.77369704      -0.93062200      -1.28737808
H       -0.82706134       0.86593093       1.23997775
H       -0.63710541      -0.90493253       1.15197748
H        0.82232448      -0.67875488      -1.22035746
H        0.57539197       0.97792692      -0.35566967
H        1.70676288       1.05898495       2.05635038
H        2.02167083      -1.04682428       1.66981642
H        2.78164510       0.14327678       0.82694893
14
Properties=species:S:1:pos:R:3 energy=-4305.138647313924 name=nbu_straight smiles=CCCC config_type=start_12 pbc="F F F"
C       -1.88965733      -0.17807220      -0.17860027
C       -0.63101696      -0.21986140       0.70193288
C        0.65087522       0.10649285      -0.06176904
C        1.89925049       0.05554341       0.81269026
H       -2.80180817      -0.40965471       0.40154400
H       -2.13942462       0.78695869      -0.49405355
H       -1.86215968      -0.82101367      -1.15356289
H       -0.56708973       0.43153377       1.55240218
H       -0.58652639      -1.00199829       1.19425511
H        0.75560705      -0.69590202      -1.08634705
H        0.60194224       0.99326219      -0.36439753
H        1.69296127       0.67190843       1.60354399
H        2.05572247      -0.87445578       1.43362155
H        2.92458655       0.33078187       0.09867896
14
Properties=species:S:1:pos:R:3 energy=-4305.138647313924 name=nbu_straight smiles=CCCC config_type=start_13 pbc="F F F"
C       -1.88906867      -0.17788180      -0.17861173
C       -0.64487904      -0.21292460       0.69904112
C        0.65446078       0.09086915      -0.06487496
C        1.90900351       0.06430459       0.81870974
H       -2.79965583      -0.40981729       0.40193400
H       -1.91503738       0.85426531      -0.77366045
H       -1.77941432      -1.00136233      -0.85456711
H       -0.93224027       0.57352223       1.51972782
H       -0.50553361      -1.42922771       1.14600089
H        0.77288295      -0.54419398      -0.71181895
H        0.51977776       1.20279981      -0.70101647
H        1.97822273       0.91378557       1.67929001
H        2.02828553      -1.00319422       1.10756045
H        2.70634945       0.25299213       0.37210704
14
Properties=species:S:1:pos:R:3 energy=-4305.138647313924 name=nbu_straight smiles=CCCC config_type=start_14 pbc="F F F"
C       -1.88996831      -0.17797867      -0.17740025
C       -0.64351894      -0.21266059       0.69837937
C        0.65525497       0.09983389      -0.03805840
C        1.90845718       0.05477531       0.79197737
H       -2.81090836      -0.40692575       0.40193820
H       -1.87668486       0.86486835      -0.81538787
H       -1.76351389      -1.03157071      -0.81155881
H       -0.98436150       0.59539361       1.51453968
H       -0.53895001      -1.10784039       1.21162414
H        0.75372698      -0.66359671      -0.95726590
H        0.57567795       1.04038574      -0.41417856
H        1.75925936       0.68548376       1.59105513
H        2.05555659      -0.88784127       1.35140461
H        2.89552550       0.32525841       0.10572457
14
Properties=species:S:1:pos:R:3 energy=-4305.138647313924 name=nbu_straight smiles=CCCC config_type=start_15 pbc="F F F"
C       -1.88875769      -0.17797533      -0.17981175
C       -0.63237706      -0.22012541       0.70259463
C        0.65008103       0.09752811      -0.08858560
C        1.89979682       0.06507269       0.83942263
H       -2.79055564      -0.41254625       0.40153980
H       -2.17777714       0.77635565      -0.45232613
H       -1.87806011      -0.79080529      -1.19657119
H       -0.51496850       0.40966239       1.55759032
H       -0.55310999      -1.32338561       1.12863186
H        0.77476302      -0.57649929      -0.84090010
H        0.54604205       1.15567626      -0.65123544
H        1.91192464       0.90021024       1.69177887
H        2.02845141      -0.98980873       1.18977739
H        2.73541050       0.25851559       0.36506143
14
Properties=species:S:1:pos:R:3 energy=-4305.138647313924 name=nbu_straight smiles=CCCC config_type=start_16 pbc="F F F"
C       -1.88948540      -0.17839374      -0.17734048
C       -0.63063679      -0.20518535       0.67586953
C        0.65526127       0.09185714      -0.05251492
C        1.89449190       0.05672563       0.82886719
H       -2.80328758      -0.41955668       0.40120387
H       -2.03642300       0.82060600      -0.65764300
H       -1.82087475      -0.89527150      -1.06410859
H       -0.70977783       0.53436262       1.51743590
H       -0.49596788      -1.42167822       1.16089583
H        0.76984994      -0.54682837      -0.70058048
H        0.51737539       1.19896793      -0.67901362
H        1.65710889       0.66723480       1.61534031
H        2.05587193      -0.86884490       1.48112443
H        2.93813731       0.33287565       0.10319937
14
Properties=species:S:1:pos:R:3 energy=-4305.138647313924 name=nbu_straight smiles=CCCC config_type=start_17 pbc="F F F"
C       -1.88924060      -0.17756026      -0.17987152
C       -0.64525921      -0.22760065       0.72510447
C        0.65007473       0.10550486      -0.07412908
C        1.91376210       0.06312237       0.80253281
H       -2.79817642      -0.39991532       0.40227413
H       -2.01803900       0.82061800      -0.61007100
H       -1.82069925      -0.92710450      -0.94402141
H       -0.78955217       0.47069338       1.55469410
H       -0.59609212      -1.00954778       1.17936017
H        0.75864006      -0.69326763      -1.09758552
H        0.60434461       0.99709407      -0.38640038
H        2.01407511       0.91845920       1.66749369
H        2.02813607      -1.00880510       1.06005757
H        2.69279869       0.25089835       0.36758663
14
Properties=species:S:1:pos:R:3 energy=-4305.138647313924 name=nbu_straight smiles=CCCC config_type=start_18 pbc="F F F"
C       -1.90425376      -0.14467725      -0.17563678
C       -0.58998448      -0.20019146       0.70568806
C        0.65248048       0.04320684      -0.07254494
C        1.86460723       0.08082583       0.81811438
H       -2.81835566      -0.37027540       0.40518306
H       -1.92450289       0.87874569      -0.61911192
H       -1.75931080      -0.96863855      -1.01851006
H       -0.68568772       0.52653156       1.54387994
H       -0.54832011      -1.28889881       1.15780421
H        0.68880130      -0.74120102      -0.92568679
H        0.65853537       1.00775482      -0.54105611
H        1.78219621       0.82337485       1.64436812
H        2.00976155      -0.95254193       1.27924344
H        2.74968031       0.31771943       0.24328009
14
Properties=species:S:1:pos:R:3 energy=-4305.138647313924 name=nbu_straight smiles=CCCC config_type=start_19 pbc="F F F"
C       -1.87447224      -0.21127675      -0.18157522
C       -0.68591152      -0.23259454       0.69528594
C        0.65285552       0.15415516      -0.05409906
C        1.94364677       0.03902217       0.81328562
H       -2.78310834      -0.44919660       0.39829494
H       -2.12995911       0.76247831      -0.64860208
H       -1.88226320      -0.85373745      -0.98961994
H       -0.81364228       0.47852444       1.52825006
H       -0.54373989      -1.14232719       1.18245179
H        0.83968870      -0.49889498      -0.87247921
H        0.46318463       1.18830718      -0.52435789
H        1.88898779       0.76231915       1.63846588
H        2.07424645      -0.92510807       1.26193856
H        2.88125569       0.26605457       0.22750591
14
Properties=species:S:1:pos:R:3 energy=-4305.138647313924 name=nbu_straight smiles=CCCC config_type=start_20 pbc="F F F"
C       -1.85646749      -0.16400045      -0.17019791
C       -0.66573416      -0.17293778       0.69912471
C        0.69467838       0.09164701      -0.05441495
C        1.87162756       0.01576773       0.80356364
H       -2.76112279      -0.39322058       0.41135544
H       -2.11286033       0.81394414      -0.66155583
H       -1.86423079      -0.79659360      -1.00287017
H       -0.78378704       0.56410995       1.53541361
H       -0.49052032      -1.22369155       1.18159264
H        0.78204070      -0.64505272      -0.88763251
H        0.62138079       1.07978698      -0.51524381
H        1.79527076       0.73134659       1.62521096
H        2.02529156      -1.08027869       1.24745165
H        2.68801841       0.28572967       0.20642536
14
Properties=species:S:1:pos:R:3 energy=-4305.138647313924 name=nbu_straight smiles=CCCC config_type=start_21 pbc="F F F"
C       -1.92225851      -0.19195355      -0.18701409
C       -0.61016184      -0.25984822       0.70184929
C        0.61065762       0.10571499      -0.07222905
C        1.93662644       0.10408027       0.82783636
H       -2.84034121      -0.42625142       0.39212256
H       -1.94160167       0.82727986      -0.60615817
H       -1.77734321      -1.02578240      -1.00525983
H       -0.71554296       0.44094605       1.53671639
H       -0.60153968      -1.20753445       1.15866336
H        0.74644930      -0.59504328      -0.91053349
H        0.50033921       1.11627502      -0.55017019
H        1.87591324       0.85434741       1.65762304
H        2.05871644      -0.79737131       1.29373035
H        2.94291759       0.29804433       0.26436064
14
Properties=species:S:1:pos:R:3 energy=-4305.138647313924 name=nbu_straight smiles=CCCC config_type=start_22 pbc="F F F"
C       -1.89861873      -0.18722576      -0.11780497
C       -0.62591338      -0.18775083       0.69551195
C        0.62313775       0.09571324      -0.07922616
C        1.92658473       0.03916452       0.80460581
H       -2.80991921      -0.41861714       0.46057312
H       -2.01778575       0.82813946      -0.68992786
H       -1.81384207      -0.90354824      -1.06537052
H       -0.70252467       0.61995281       1.54358055
H       -0.66908305      -1.23262179       1.13434124
H        0.77262055      -0.61217282      -0.96027575
H        0.56602574       1.10796813      -0.59193484
H        1.92394113       0.70152009       1.62383259
H        2.04919021      -0.92866743       1.20757348
H        2.82625948       0.30019012       0.17966306
14
Properties=species:S:1:pos:R:3 energy=-4305.138647313924 name=nbu_straight smiles=CCCC config_type=start_23 pbc="F F F"
C       -1.88010727      -0.16872824      -0.23940703
C       -0.64998262      -0.24503517       0.70546205
C        0.68219825       0.10164876      -0.04741784
C        1.88166927       0.08068348       0.82679419
H       -2.79154479      -0.40085486       0.34290488
H       -2.03667625       0.81308454      -0.57778614
H       -1.82773193      -0.91882776      -0.94275948
H       -0.79680533       0.38510319       1.52854945
H       -0.42297695      -1.19860421       1.20591476
H        0.75586945      -0.62792318      -0.83789025
H        0.55569426       1.08809387      -0.47347916
H        1.74724287       0.88417391       1.65900141
H        2.03481779      -0.94898257       1.33360852
H        2.80467652       0.28358388       0.29112294
14
Properties=species:S:1:pos:R:3 energy=-4305.138647313924 name=nbu_straight smiles=CCCC config_type=start_24 pbc="F F F"
C       -1.88529874      -0.17356086      -0.20890872
C       -0.62619680      -0.18186302       0.71234409
C        0.61480145       0.09199831      -0.06418916
C        1.92809617       0.02984892       0.82010025
H       -2.79607882      -0.40549471       0.37267734
H       -2.01476554       0.86696109      -0.59366772
H       -1.80600971      -0.86618856      -0.96412390
H       -0.75352707       0.49317710       1.54199459
H       -0.53773496      -1.21537239       1.17904900
H        0.70600542      -0.63210789      -0.87610924
H        0.50449674       1.08396517      -0.51064503
H        1.82891806       0.79802842       1.64929195
H        2.07393397      -0.98386998       1.30054095
H        2.84562560       0.24532081       0.26431703
14
Properties=species:S:1:pos:R:3 energy=-4305.138647313924 name=nbu_straight smiles=CCCC config_type=start_25 pbc="F F F"
C       -1.89342726      -0.18239314      -0.14830328
C       -0.64969920      -0.25092298       0.68862991
C        0.69053455       0.10536369      -0.06245484
C        1.88015783       0.08999908       0.81129975
H       -2.80538518      -0.41397729       0.43080066
H       -2.03969646       0.77426291      -0.67404628
H       -1.83556429      -0.95618744      -1.04400610
H       -0.74580293       0.51187890       1.53013541
H       -0.55432504      -1.21585361       1.16120700
H        0.82248458      -0.60798811      -0.92205676
H        0.61722326       1.11209683      -0.55476897
H        1.84226594       0.78766558       1.63354205
H        2.01007403      -0.89378002       1.24064105
H        2.78531040       0.33845319       0.20646897
14
Properties=species:S:1:pos:R:3 energy=-4305.138647313924 name=nbu_straight smiles=CCCC config_type=start_26 pbc="F F F"
C       -1.87488448      -0.20070371      -0.17989337
C       -0.62464797      -0.21219415       0.71627463
C        0.64751762       0.08248895      -0.05749935
C        1.89433497       0.07484630       0.79423780
H       -2.82843483      -0.36771459       0.40390005
H       -2.05421096       0.77111614      -0.68619040
H       -1.82090561      -0.85993532      -1.00478961
H       -0.74837974       0.57480146       1.55604423
H       -0.59678359      -1.19880444       1.17169811
H        0.83470662      -0.58870824      -0.92088840
H        0.50017550       1.10673843      -0.53670444
H        1.76406100       0.88793075       1.62958441
H        2.04675753      -0.94432068       1.30915230
H        2.82379118       0.26529010       0.27739712
14
Properties=species:S:1:pos:R:3 energy=-4305.138647313924 name=nbu_straight smiles=CCCC config_type=start_27 pbc="F F F"
C       -1.90384152      -0.15525029      -0.17731863
C       -0.65124803      -0.22059185       0.68469937
C        0.65781838       0.11487305      -0.06914465
C        1.91391903       0.04500170       0.83716220
H       -2.77302917      -0.45175741       0.39957795
H       -2.00025104       0.87010786      -0.58152360
H       -1.82066839      -0.96244068      -1.00334039
H       -0.75095026       0.43025454       1.51608577
H       -0.49527641      -1.23242156       1.16855789
H        0.69378338      -0.65138776      -0.87727760
H        0.62154450       1.08932357      -0.52870956
H        1.90712300       0.69776325       1.65324959
H        2.03725047      -0.93332932       1.23202970
H        2.80714482       0.31848390       0.19338888
14
Properties=species:S:1:pos:R:3 energy=-4305.138647313924 name=nbu_straight smiles=CCCC config_type=start_28 pbc="F F F"
C       -1.91199777      -0.19264535      -0.18381785
C       -0.64420444      -0.20185229       0.71929277
C        0.67299464       0.09819549      -0.08106493
C        1.89304947       0.04801692       0.81539725
H       -2.76121448      -0.38484818       0.41062243
H       -1.99999860       0.84724078      -0.64558526
H       -1.82550888      -0.95687390      -1.05587107
H       -0.70495349       0.58022597       1.56595886
H       -0.44093330      -1.18514792       1.17382701
H        0.77263252      -0.60990177      -0.86748247
H        0.51611296       1.08824826      -0.49457426
H        1.86655569       0.79901835       1.64835039
H        2.01212606      -0.86749114       1.25058700
H        2.87295202       0.24920736       0.25285165
14
Properties=species:S:1:pos:R:3 energy=-4305.138647313924 name=nbu_straight smiles=CCCC config_type=start_29 pbc="F F F"
C       -1.86672823      -0.16330865      -0.17339415
C       -0.63169156      -0.23093371       0.68168123
C        0.63234136       0.09916651      -0.04557907
C        1.91520453       0.07183108       0.81600275
H       -2.84024952      -0.43462382       0.39285557
H       -2.05446340       0.79398322      -0.62212874
H       -1.81606512      -0.86550210      -0.95225893
H       -0.79437651       0.42483003       1.50617114
H       -0.65112670      -1.24607808       1.16642899
H        0.75585748      -0.63019423      -0.93068353
H        0.60560704       1.10781374      -0.57083974
H        1.80462831       0.78667565       1.63448361
H        2.07188194      -1.01015886       1.29059500
H        2.75798398       0.33456664       0.21793435
14
Properties=species:S:1:pos:R:3 energy=-4305.138647313924 name=nbu_straight smiles=CCCC config_type=start_30 pbc="F F F"
C       -1.89394632      -0.17774590      -0.17926928
C       -0.65645345      -0.20783557       0.69898703
C        0.66047436       0.08177171      -0.06345056
C        1.91933330       0.06811833       0.81798335
H       -2.81888775      -0.40884969       0.39928623
H       -1.97150166       0.89771701      -0.58944950
H       -1.82142228      -1.00417832      -1.03809352
H       -0.71454860       0.48577361       1.53878432
H       -0.56445280      -1.18163201       1.17220045
H        0.85718348      -0.57494789      -0.91074911
H        0.47998799       1.11108394      -0.53016493
H        1.80222886       0.77697219       1.63474166
H        2.07738888      -1.02695866       1.29005873
H        2.74867779       0.33467356       0.21910602
14
Properties=species:S:1:pos:R:3 energy=-4305.138647313924 name=nbu_straight smiles=CCCC config_type=start_31 pbc="F F F"
C       -1.88477968      -0.17820810      -0.17794272
C       -0.61944255      -0.22495043       0.70198697
C        0.64486164       0.11559029      -0.06319344
C        1.88892070       0.05172967       0.81341665
H       -2.78257625      -0.41062231       0.40419177
H       -2.08296034       0.74350699      -0.67826450
H       -1.82015172      -0.81819768      -0.97003648
H       -0.78478140       0.51928239       1.53334568
H       -0.52760720      -1.24959399       1.16805555
H        0.67130652      -0.66514811      -0.88741689
H        0.64173201       1.08497806      -0.53524907
H        1.86895514       0.80872181       1.64809234
H        2.00661912      -0.85069134       1.25112327
H        2.88225821       0.24910044       0.25167998
14
Properties=species:S:1:pos:R:3 energy=-4305.138647313924 name=nbu_straight smiles=CCCC config_type=start_32 pbc="F F F"
C       -1.86467672      -0.18127108      -0.17565199
C       -0.63302136      -0.22558995       0.70198556
C        0.62849762       0.08878266      -0.07514688
C        1.89867010       0.08185817       0.82298376
H       -2.69802708      -0.42037851       0.41423904
H       -2.04059137       0.78781512      -0.66045127
H       -1.82230561      -0.89754026      -1.01145037
H       -0.74559203       0.52230089       1.53963362
H       -0.47629550      -1.19412943       1.18216973
H        0.72802516      -0.61664431      -0.85531358
H        0.47156366       1.07731922      -0.48605946
H        1.85982547       0.74434824       1.63755326
H        2.03496131      -0.94682756       1.23884137
H        2.76232575       0.35965852       0.18751996
14
Properties=species:S:1:pos:R:3 energy=-4305.138647313924 name=nbu_straight smiles=CCCC config_type=start_33 pbc="F F F"
C       -1.91404928      -0.17468292      -0.18156001
C       -0.64287464      -0.20719605       0.69898844
C        0.67683838       0.10857934      -0.05149712
C        1.90958390       0.03798983       0.80841624
H       -2.90343692      -0.39909349       0.38923896
H       -2.01387063       0.85340888      -0.60726273
H       -1.81926839      -0.92483574      -0.99667963
H       -0.75373797       0.48275511       1.53249638
H       -0.61576450      -1.23709657       1.15808627
H        0.80046484      -0.62345169      -0.94285242
H        0.65015634       1.11874278      -0.57935454
H        1.81135853       0.84134576       1.64528074
H        2.04904669      -0.93082244       1.30234063
H        2.86861025       0.22411548       0.28326604
14
Properties=species:S:1:pos:R:3 energy=-4305.138647313924 name=nbu_straight smiles=CCCC config_type=start_34 pbc="F F F"