14
Properties=species:S:1:pos:R:3 energy=-4305.170793189098 smiles=CCCC name=tbu config_type=start_0 pbc="F F F"
C        0.03717466       0.07951574      -0.44020766
C        0.19783893       1.44938798       0.28317140
C       -1.40323525      -0.48935888      -0.26358715
C        1.11087677      -0.94253360       0.02985972
H        0.19884989       0.25216815      -1.52308826
H       -0.55022867       2.20134565      -0.07768777
H        1.22437349       1.87875909       0.12938774
H        0.04640914       1.33469993       1.37419677
H       -1.62129552      -0.67262071       0.80668246
H       -2.18133069       0.22406915      -0.64131138
H       -1.53311244      -1.46460977      -0.80376273
H        0.98482393      -1.16157534       1.10846511
H        2.15371686      -0.54884655      -0.11702391
H        1.02735026      -1.91701568      -0.52434078
14
Properties=species:S:1:pos:R:3 energy=-4305.170793189098 smiles=CCCC name=tbu config_type=start_1 pbc="F F F"
C        0.02421734       0.05979026      -0.44330034
C        0.70586107       1.26960002       0.26380860
C       -1.50704675       0.02619088      -0.15457685
C        0.70641123      -1.28365440      -0.05820172
H        0.15594211       0.19421185      -1.53582374
H        0.23612867       2.24019435      -0.03777423
H        1.80149251       1.32333291       0.02707026
H        0.60467086       1.18566607       1.36426323
H       -1.69661848      -0.11238129       0.92760754
H       -2.00821931       0.98259085      -0.45918862
H       -2.01043356      -0.82035223      -0.69546727
H        0.61474407      -1.46168866       1.03111089
H        1.80277514      -1.28057945      -0.30927009
H        0.23327574      -2.15665432      -0.58293522
14
Properties=species:S:1:pos:R:3 energy=-4305.170793189098 smiles=CCCC name=tbu config_type=start_2 pbc="F F F"
C        0.12916310       0.09526768      -0.41488472
C        0.40183105       1.29762191       0.54279552
C       -1.44004833      -0.15614362      -0.64667570
C        0.82664931      -1.16877297       0.15632757
H        0.59692193       0.34299249      -1.44593160
H       -0.06519283       2.21954764       0.11052938
H        1.53147164       1.50256193       0.68200598
H       -0.05190858       1.10804341       1.59003793
H       -1.96894883      -0.39567969       0.35805186
H       -1.93974812       0.73661853      -1.10719851
H       -1.64265783      -1.00870019      -1.35398187
H        0.38688586      -1.47126843       1.18800341
H        1.96485036      -0.99415097       0.29616219
H        0.66897815      -2.02703100      -0.55875560
14
Properties=species:S:1:pos:R:3 energy=-4305.170793189098 smiles=CCCC name=tbu config_type=start_3 pbc="F F F"
C       -0.06777110       0.04403832      -0.46862328
C        0.50186895       1.42136609       0.00418448
C       -1.47023367      -0.30702438       0.22851170
C        0.99063869      -1.05741503      -0.18466957
H       -0.24212993       0.10338751      -1.61298040
H       -0.24890717       2.22199236      -0.22599138
H        1.49439436       1.69953007      -0.52554798
H        0.70298858       1.41232259       1.14842207
H       -1.34896517      -0.38932231       1.37623814
H       -2.24980188       0.47004147       0.00669851
H       -1.90088817      -1.27626181      -0.14524813
H        1.21268214      -1.15199557       0.95157259
H        1.99164164      -0.83527503      -0.72245619
H        0.59164785      -2.04663900      -0.54852040
14
Properties=species:S:1:pos:R:3 energy=-4305.170793189098 smiles=CCCC name=tbu config_type=start_4 pbc="F F F"
C       -1.14804610       1.47553762      -1.37597163
C       -0.72463761       2.78494886      -0.69693635
C       -2.64214770       1.20093232      -1.16137657
C       -0.29264353       0.29686171      -0.89121778
H       -0.97900314       1.59031095      -2.46612917
H       -1.31539337       3.64278490      -1.07005449
H        0.34346499       3.00592193      -0.87877706
H       -0.87463286       2.72470494       0.39965338
H       -2.86916524       1.08196407      -0.08338696
H       -3.26506643       2.03070722      -1.54586897
H       -2.95916623       0.27411898      -1.67450564
H       -0.42345089       0.13655472       0.19736855
H        0.78308143       0.47527860      -1.07766061
H       -0.57241458      -0.64187102      -1.40417418
14
Properties=species:S:1:pos:R:3 energy=-4305.170793189098 smiles=CCCC name=tbu config_type=start_5 pbc="F F F"
C        1.20943810      -1.33623162       0.49246363
C        1.62833761      -0.06596086       1.24391635
C       -0.26813430      -1.66410032       0.74321257
C        2.10993153      -2.52304971       0.86287578
H        1.33379514      -1.14393095      -0.59278283
H        1.00129337       0.79875510       0.95459249
H        2.68240101       0.19617007       1.03523506
H        1.52571286      -0.20433894       2.33880662
H       -0.44874876      -1.86696607       1.81767696
H       -0.92448357      -0.82404722       0.44536897
H       -0.58437977      -2.55908098       0.17527564
H        2.02301889      -2.75981872       1.94220745
H        3.17341057      -2.30470460       0.65136661
H        1.83304058      -3.43179898       0.29689818
14
Properties=species:S:1:pos:R:3 energy=-4305.170793189098 smiles=CCCC name=tbu config_type=start_6 pbc="F F F"
C       -0.33059721      -1.71804285      -2.70105407
C        0.06323373      -0.42580490      -1.97424548
C       -1.81367039      -2.04476826      -2.48364266
C        0.56249883      -2.88920061      -2.27253086
H       -0.17653829      -1.55565815      -3.78651891
H       -0.55583342       0.42804880      -2.30611970
H        1.12244012      -0.16656418      -2.15790902
H       -0.07179394      -0.53334847      -0.88038493
H       -2.02445511      -2.21540733      -1.41013912
H       -2.46362493      -1.21798478      -2.82526111
H       -2.11103794      -2.95743715      -3.03243497
H        0.44624957      -3.09631595      -1.19087934
H        1.63080184      -2.67209843      -2.45975182
H        0.30437656      -3.81407948      -2.82060141
14
Properties=species:S:1:pos:R:3 energy=-4305.170793189098 smiles=CCCC name=tbu config_type=start_7 pbc="F F F"
C        0.39198921       1.85734885       1.81754607
C        0.84046627       3.14479290       2.52122548
C       -1.09661161       1.58160026       2.06547866
C        1.25478917       0.66301261       2.24418886
H        0.53133029       2.00203815       0.72760691
H        0.24173342       4.01349120       2.19065770
H        1.90342588       3.36865618       2.31436702
H        0.72287394       3.05371447       3.61884493
H       -1.29345889       1.43040533       3.14442912
H       -1.72592507       2.42464478       1.72476111
H       -1.43250806       0.67247515       1.53320497
H        1.15331843       0.47305195       3.33045534
H        2.32569016       0.84267243       2.03345782
H        0.95624944      -0.25959052       1.71332541
14
Properties=species:S:1:pos:R:3 energy=-4305.170793189098 smiles=CCCC name=tbu config_type=start_8 pbc="F F F"
C       -1.34374724      -0.58249325       0.28783329
C       -0.91085070       0.72268403       0.96883975
C       -2.81133722      -0.91116124       0.60095136
C       -0.42041093      -1.74385108       0.68177684
H       -1.25578234      -0.43664243      -0.80888446
H       -1.55399886       1.56886770       0.66085693
H        0.13559904       0.98350083       0.71642756
H       -0.97849157       0.63087698       2.07243228
H       -2.95546521      -1.06834521       1.68875430
H       -3.48520159      -0.09112542       0.28725062
H       -3.13805824      -1.83196277       0.08330340
H       -0.46926749      -1.93324604       1.77347867
H        0.63488165      -1.52745911       0.42511287
H       -0.70905820      -2.67841144       0.16629413
14
Properties=species:S:1:pos:R:3 energy=-4305.170793189098 smiles=CCCC name=tbu config_type=start_9 pbc="F F F"
C        1.40513924       0.72179925      -1.17134129
C        1.81455070       1.99630397      -0.42185975
C       -0.09894478       0.44799324      -1.01911536
C        2.23769893      -0.48233692      -0.71011884
H        1.61057434       0.88302243      -2.25002754
H        1.23989886       2.87267230      -0.77631893
H        2.89026696       2.21859117      -0.55996956
H        1.62957157       1.88948902       0.66602772
H       -0.36244879       0.28334321       0.04553570
H       -0.70434841       1.29778542      -1.38775062
H       -0.40548776      -0.45299923      -1.58253340
H        2.06883549      -0.69001796       0.36609733
H        3.32161035      -0.30196689      -0.85140687
H        1.96968420      -1.39525856      -1.27357013
14
Properties=species:S:1:pos:R:3 energy=-4305.170793189098 smiles=CCCC name=tbu config_type=start_10 pbc="F F F"
C       -0.00091854       0.17091952      -0.43553124
C        0.43075991       1.28606144       0.58535109
C       -1.45747118      -0.24509003      -0.16526203
C        0.95093578      -1.09460761      -0.38679114
H        0.05655799       0.61274182      -1.49465596
H       -0.24173750       2.20970690       0.53126331
H        1.46584304       1.62048000       0.36154208
H        0.40293634       0.89678007       1.66531725
H       -1.56788159      -0.70318147       0.88529552
H       -2.15285448       0.66203688      -0.22897554
H       -1.78630497      -1.02237692      -0.92665233
H        0.92861312      -1.57776995       0.65485462
H        1.99857917      -0.80671372      -0.61237242
H        0.66413590      -1.88822478      -1.14519393
14
Properties=species:S:1:pos:R:3 energy=-4305.170793189098 smiles=CCCC name=tbu config_type=start_11 pbc="F F F"
C        0.06231054      -0.03161352      -0.44797676
C        0.47294009       1.43292656      -0.03837109
C       -1.45281082      -0.21807797      -0.25290197
C        0.86635222      -1.13158039       0.35844914
H        0.29823401      -0.16636182      -1.56425604
H       -0.07236250       2.23183310      -0.64672531
H        1.56002296       1.58161200      -0.20508408
H        0.24814366       1.62358593       1.07314275
H       -1.75003241      -0.08182053       0.84899448
H       -2.03669552       0.54462312      -0.87152446
H       -1.75724103      -1.26258508      -0.57257767
H        0.67095488      -1.04549405       1.48472138
H        1.95791283      -1.02271228       0.18607842
H        0.59649010      -2.18544522       0.03791793
14
Properties=species:S:1:pos:R:3 energy=-4305.170793189098 smiles=CCCC name=tbu config_type=start_12 pbc="F F F"
C        0.03040167       0.06955780      -0.44174827
C        0.45878104       1.35602560       0.27493588
C       -1.45693378      -0.22377215      -0.20752904
C        0.90376749      -1.11747459      -0.01718074
H        0.17631983       0.22327129      -1.52965100
H       -0.26924362       2.18711669       0.08207245
H        1.47156032       1.69122033      -0.07126889
H        0.50811527       1.18918877       1.38556718
H       -1.69945339      -0.17888629       0.89127211
H       -2.10341295       0.52747598      -0.73751405
H       -1.73069076      -1.24724981      -0.58130553
H        0.65715327      -1.43257057       1.03191499
H        1.99196447      -0.85034378      -0.05011645
H        0.73943155      -1.99794013      -0.69035204
14
Properties=species:S:1:pos:R:3 energy=-4305.170793189098 smiles=CCCC name=tbu config_type=start_13 pbc="F F F"
C        0.03099033       0.06974820      -0.44175973
C        0.44491896       1.36296240       0.27204412
C       -1.45334822      -0.23939585      -0.21063496
C        0.91352051      -1.10871341      -0.01116126
H        0.17847217       0.22310871      -1.52926100
H       -0.04485638       2.25442331      -0.19753445
H        1.55430568       1.51087167       0.22772689
H        0.14296473       1.33117723       1.35289282
H       -1.61846061      -0.60611571       0.84301789
H       -2.08613705       0.67918402      -0.36298595
H       -1.81285524      -1.03771219      -0.91792447
H        0.94241473      -1.19069343       1.10766101
H        1.96452753      -0.97908222      -0.37617755
H        0.52119445      -2.07572987      -0.41692396
14
Properties=species:S:1:pos:R:3 energy=-4305.170793189098 smiles=CCCC name=tbu config_type=start_14 pbc="F F F"
C        0.03009069       0.06965133      -0.44054825
C        0.44627906       1.36322641       0.27138237
C       -1.45255403      -0.23043111      -0.18381840
C        0.91297418      -1.11824269      -0.03789363
H        0.16721964       0.22600025      -1.52925680
H       -0.00650386       2.26502635      -0.23926187
H        1.57020611       1.48066329       0.27073519
H        0.09084350       1.35304861       1.34770468
H       -1.65187701      -0.28472839       0.90864114
H       -2.10529302       0.55978129      -0.60843290
H       -1.75695505      -1.20012626      -0.63108656
H        0.72345136      -1.41899524       1.01942613
H        1.99179859      -0.86372927      -0.13233339
H        0.71037050      -2.00346359      -0.68330643
14
Properties=species:S:1:pos:R:3 energy=-4305.170793189098 smiles=CCCC name=tbu config_type=start_15 pbc="F F F"
C        0.03130131       0.06965467      -0.44295975
C        0.45742094       1.35576159       0.27559763
C       -1.45772797      -0.23273689      -0.23434560
C        0.90431382      -1.10794531       0.00955163
H        0.18757236       0.22037975      -1.52965520
H       -0.30759614       2.17651365       0.12379987
H        1.45565989       1.72142871      -0.11427719
H        0.56023650       1.16731739       1.39075532
H       -1.66603699      -0.50027361       0.82564886
H       -2.08425698       0.64687871      -0.49206710
H       -1.78659095      -1.08483574      -0.86814344
H        0.87611664      -1.20426876       1.12014987
H        1.96469341      -0.96569673      -0.29396061
H        0.55025550      -2.07020641      -0.42396957
14
Properties=species:S:1:pos:R:3 energy=-4305.170793189098 smiles=CCCC name=tbu config_type=start_16 pbc="F F F"
C        0.03057360       0.06923626      -0.44048848
C        0.45916121       1.37070165       0.24887253
C       -1.45254773      -0.23840786      -0.19827492
C        0.89900890      -1.11629237      -0.00100381
H        0.17484042       0.21336932      -1.52999113
H       -0.16624200       2.22076400      -0.08151700
H        1.51284525       1.61696250       0.01818541
H        0.36542717       1.29201762       1.35060090
H       -1.60889488      -0.59856622       0.85791283
H       -2.08917006       0.67654963      -0.35174748
H       -1.81525761      -1.04154407      -0.89592162
H        0.62130089      -1.43724420       1.04371131
H        1.99211393      -0.84473290      -0.00261357
H        0.75298231      -1.99584635      -0.68583163
14
Properties=species:S:1:pos:R:3 energy=-4305.170793189098 smiles=CCCC name=tbu config_type=start_17 pbc="F F F"
C        0.03081840       0.07006974      -0.44301952
C        0.44453879       1.34828635       0.29810747
C       -1.45773427      -0.22476014      -0.21988908
C        0.91827910      -1.10989563      -0.02733819
H        0.17995158       0.23301068      -1.52892087
H       -0.14785800       2.22077600      -0.03394500
H        1.51302075       1.58512950       0.13827259
H        0.28565283       1.22834838       1.38785910
H       -1.70901912      -0.18643578       0.87637717
H       -2.10037994       0.53011037      -0.74875252
H       -1.72828839      -1.24341793      -0.60330838
H        0.97826711      -1.18601980       1.09586469
H        1.96437807      -0.98469310      -0.42368043
H        0.50764369      -2.07782365      -0.42144437
14
Properties=species:S:1:pos:R:3 energy=-4305.170793189098 smiles=CCCC name=tbu config_type=start_18 pbc="F F F"
C        0.01580524       0.10295275      -0.43878478
C        0.49981352       1.37569554       0.27869106
C       -1.45532852      -0.28705816      -0.21830494
C        0.86912423      -1.09219217      -0.01175662
H        0.15977234       0.26265060      -1.52601194
H       -0.05432189       2.27890369      -0.04298592
H        1.57440920       1.54359545       0.06378394
H        0.38951728       1.28418656       1.37704494
H       -1.66124711      -0.46578681       0.85482121
H       -2.17021870       0.48217698      -0.57685379
H       -1.67409763      -1.23275718      -0.75796411
H        0.74638821      -1.28110415       1.07273912
H        1.94600355      -0.92842993      -0.20449456
H        0.56452531      -2.01100257      -0.54575091
14
Properties=species:S:1:pos:R:3 energy=-4305.170793189098 smiles=CCCC name=tbu config_type=start_19 pbc="F F F"
C        0.04558676       0.03635325      -0.44472322
C        0.40388648       1.34329246       0.26828894
C       -1.45495348      -0.17610984      -0.19985906
C        0.94816377      -1.13399583      -0.01658538
H        0.19501966       0.18372940      -1.53290006
H       -0.25977811       2.16263631      -0.07247608
H        1.45145680       1.65849655       0.09267406
H        0.26156272       1.23617944       1.36141506
H       -1.65666689      -0.31921519       0.87946879
H       -2.01933130       0.72448302      -0.52364621
H       -1.86944837      -1.05220482      -0.74126589
H        0.85317979      -1.34215985       1.06683688
H        2.01048845      -0.90099607      -0.22179944
H        0.69610069      -2.06266743      -0.56152509
14
Properties=species:S:1:pos:R:3 energy=-4305.170793189098 smiles=CCCC name=tbu config_type=start_20 pbc="F F F"
C        0.06359151       0.08362955      -0.43334591
C        0.42406384       1.40294922       0.27212771
C       -1.41313062      -0.23861799      -0.20017495
C        0.87614456      -1.15725027      -0.02630736
H        0.21700521       0.23970542      -1.51983956
H       -0.24267933       2.21410214      -0.08542983
H        1.46948921       1.71564040       0.07942383
H        0.29141796       1.32176495       1.36857861
H       -1.60344732      -0.40057955       0.87860964
H       -2.07697930       0.57832528      -0.53879951
H       -1.71125221      -1.16072502      -0.73215181
H        0.75946276      -1.37313241       1.05358196
H        1.96153356      -1.05616669      -0.23628635
H        0.50286341      -2.04299233      -0.58260564
14
Properties=species:S:1:pos:R:3 energy=-4305.170793189098 smiles=CCCC name=tbu config_type=start_21 pbc="F F F"
C       -0.00219951       0.05567645      -0.45016209
C        0.47963616       1.31603878       0.27485229
C       -1.49715138      -0.22455001      -0.21798905
C        0.94114344      -1.06893773      -0.00203464
H        0.13778679       0.20667458      -1.53907244
H       -0.07142067       2.22743786      -0.03003217
H        1.55637679       1.48645160       0.07703417
H        0.35966204       1.19860105       1.36988139
H       -1.71446668      -0.38442245       0.85568036
H       -2.11257070       0.62833472      -0.56170049
H       -1.83229379      -1.12423698      -0.76707819
H        0.84010524      -1.25013159       1.08599404
H        1.99495844      -0.77325931      -0.19000765
H        0.75776259      -2.03067767      -0.52467036
14
Properties=species:S:1:pos:R:3 energy=-4305.170793189098 smiles=CCCC name=tbu config_type=start_22 pbc="F F F"
C        0.02144027       0.06040424      -0.38095297
C        0.46388462       1.38813617       0.26851495
C       -1.48467125      -0.23455176      -0.22498616
C        0.93110173      -1.13385348      -0.02526519
H        0.16820879       0.21430886      -1.47062188
H       -0.14760475       2.22829746      -0.11380186
H        1.51987793       1.60868576       0.01692348
H        0.37268033       1.37760781       1.37674555
H       -1.78201005      -0.40950979       0.83135824
H       -2.08639945       0.61120518      -0.61144275
H       -1.76660726      -1.13254387      -0.80884284
H        0.88813313      -1.40295891       1.05220359
H        1.98543221      -0.90455543      -0.27616452
H        0.64110448      -2.02853188      -0.60936794
14
Properties=species:S:1:pos:R:3 energy=-4305.170793189098 smiles=CCCC name=tbu config_type=start_23 pbc="F F F"
C        0.03995173       0.07890176      -0.50255503
C        0.43981538       1.33085183       0.27846505
C       -1.42561075      -0.22861624      -0.19317784
C        0.88618627      -1.09233452      -0.00307681
H        0.18658321       0.23207114      -1.58829012
H       -0.16649525       2.21324254      -0.00166014
H        1.50598807       1.59340624       0.13953452
H        0.27839967       1.14275819       1.36171445
H       -1.53590395      -0.37549221       0.90293176
H       -2.10315055       0.59545482      -0.48905725
H       -1.77693874      -1.15241813      -0.69038716
H        0.71143487      -1.22030509       1.08737241
H        1.97105979      -0.92487057      -0.15012948
H        0.61952152      -2.04513812      -0.49790806
14
Properties=species:S:1:pos:R:3 energy=-4305.170793189098 smiles=CCCC name=tbu config_type=start_24 pbc="F F F"
C        0.03476026       0.07406914      -0.47205672
C        0.46360120       1.39402398       0.28534709
C       -1.49300755      -0.23826669      -0.20994916
C        0.93261317      -1.14316908      -0.00977075
H        0.18204918       0.22743129      -1.55851766
H       -0.14458454       2.26711909      -0.01754172
H        1.52771029       1.64604544       0.11817010
H        0.32167793       1.25083210       1.37515959
H       -1.65066196      -0.39226039       0.87606600
H       -2.15301458       0.59127011      -0.52727624
H       -1.82813626      -1.15654683      -0.72755303
H        0.79311006      -1.30645058       1.07766295
H        2.01017597      -0.95975798      -0.18319705
H        0.66047060      -2.08340119      -0.52471397
14
Properties=species:S:1:pos:R:3 energy=-4305.170793189098 smiles=CCCC name=tbu config_type=start_25 pbc="F F F"
C        0.02663174       0.06523686      -0.41145128
C        0.44009880       1.32496402       0.26163291
C       -1.41727445      -0.22490131      -0.20821484
C        0.88467483      -1.08301892      -0.01857125
H        0.17274282       0.21894871      -1.50039434
H       -0.16951546       2.17442091      -0.09792028
H        1.49815571       1.55604656       0.03828790
H        0.32940207       1.26953390       1.36330041
H       -1.66725204      -0.39274161       0.85822400
H       -2.03653542       0.61538989      -0.57322376
H       -1.71540974      -1.12841517      -0.77167697
H        0.80645794      -1.31681342       1.06191305
H        1.94631603      -0.86966802      -0.24309695
H        0.60015540      -1.99026881      -0.58256203
14
Properties=species:S:1:pos:R:3 energy=-4305.170793189098 smiles=CCCC name=tbu config_type=start_26 pbc="F F F"
C        0.04517452       0.04692629      -0.44304137
C        0.46515003       1.36369285       0.28927763
C       -1.46029138      -0.24777605      -0.20325935
C        0.89885197      -1.09817170      -0.03563320
H        0.14969317       0.26521141      -1.52729495
H       -0.18402996       2.17127414      -0.11006440
H        1.51281439       1.65229868       0.07750439
H        0.32682526       1.33245646       1.38920923
H       -1.70971059      -0.37569244       0.86871511
H       -2.02431338       0.63466976      -0.57205540
H       -1.83245750      -1.13377357      -0.75361244
H        0.72825300      -1.21654825       1.05795541
H        1.98299953      -0.92020868      -0.17458570
H        0.63863618      -2.06343190      -0.51163388
14
Properties=species:S:1:pos:R:3 energy=-4305.170793189098 smiles=CCCC name=tbu config_type=start_27 pbc="F F F"
C        0.01621748       0.09237971      -0.44046663
C        0.43854997       1.35529515       0.25770237
C       -1.44999062      -0.21539195      -0.21490465
C        0.91843603      -1.12801630       0.00729120
H        0.20509883       0.18116859      -1.53161705
H       -0.13007004       2.27026586      -0.00539760
H        1.51305161       1.54979332       0.07895361
H        0.32425474       1.18790954       1.34925077
H       -1.60820341      -0.40930956       0.86557489
H       -2.16523662       0.57199024      -0.52844460
H       -1.71108850      -1.15118843      -0.74561756
H        0.87131500      -1.40671575       1.08162059
H        1.97349247      -0.90921732      -0.25170830
H        0.62198982      -2.01023810      -0.59564212
14
Properties=species:S:1:pos:R:3 energy=-4305.170793189098 smiles=CCCC name=tbu config_type=start_28 pbc="F F F"
C        0.00806123       0.05498465      -0.44696585
C        0.44559356       1.37403471       0.29229577
C       -1.43481436      -0.23206951      -0.22682493
C        0.89756647      -1.12500108      -0.01447375
H        0.21691352       0.24807782      -1.52057257
H       -0.12981760       2.24739878      -0.06945926
H        1.50821112       1.55536010       0.02642293
H        0.37025151       1.33788097       1.39912386
H       -1.55386030      -0.36203592       0.87084401
H       -2.08638748       0.61347623      -0.51864947
H       -1.81652004      -1.15226374      -0.71148226
H        0.83074769      -1.30546065       1.07672139
H        1.94836806      -0.84337914      -0.23315100
H        0.68779702      -2.07951464      -0.53617935
14
Properties=species:S:1:pos:R:3 energy=-4305.170793189098 smiles=CCCC name=tbu config_type=start_29 pbc="F F F"
C        0.05333077       0.08432135      -0.43654215
C        0.45810644       1.34495329       0.25468423
C       -1.47546764      -0.23109849      -0.19133907
C        0.91972153      -1.10118692      -0.01386825
H        0.13787848       0.19830218      -1.53833943
H       -0.18428240       2.19414122      -0.04600274
H        1.51765488       1.64673190       0.13003507
H        0.28082849       1.18248503       1.33933614
H       -1.76405370      -0.42296608       0.86344599
H       -2.10316252       0.59318377      -0.58185053
H       -1.72702596      -1.13269826      -0.78774774
H        0.76882031      -1.31780335       1.06285461
H        2.00812394      -0.98604686      -0.19314300
H        0.57282898      -1.99415536      -0.57109665
14
Properties=species:S:1:pos:R:3 energy=-4305.170793189098 smiles=CCCC name=tbu config_type=start_30 pbc="F F F"
C        0.02611268       0.06988410      -0.44241728
C        0.43334455       1.36805143       0.27199003
C       -1.44733464      -0.24849329      -0.20921056
C        0.92385030      -1.10489967      -0.01188765
H        0.15924025       0.22407631      -1.53190877
H       -0.10132066       2.29787501      -0.01332350
H        1.51229772       1.50805568       0.04420048
H        0.36065640       1.24342861       1.37194932
H       -1.67737980      -0.35852001       0.86921745
H       -2.00183652       0.64843011      -0.56191611
H       -1.85264501      -1.12942806      -0.74707293
H        0.76642086      -1.32750681       1.06311266
H        2.01363088      -1.00284666      -0.19367927
H        0.56352279      -1.99404844      -0.56992498
14
Properties=species:S:1:pos:R:3 energy=-4305.170793189098 smiles=CCCC name=tbu config_type=start_31 pbc="F F F"
C        0.03527932       0.06942190      -0.44109072
C        0.47035545       1.35093657       0.27498997
C       -1.46294736      -0.21467471      -0.20895344
C        0.89343770      -1.12128833      -0.01645435
H        0.19555175       0.22230369      -1.52700323
H       -0.21277934       2.14366499      -0.10213850
H        1.51356828       1.69403632       0.11225752
H        0.29042360       1.27693739       1.36651068
H       -1.64053420      -0.42648199       0.86507255
H       -2.18771348       0.55822989      -0.53858389
H       -1.69090099      -1.15553394      -0.75215707
H        0.83314714      -1.29575719       1.07646334
H        1.94286112      -0.82657934      -0.23261473
H        0.69710321      -2.07962156      -0.53735102
14
Properties=species:S:1:pos:R:3 energy=-4305.170793189098 smiles=CCCC name=tbu config_type=start_32 pbc="F F F"
C        0.05538228       0.06635892      -0.43879999
C        0.45677664       1.35029705       0.27498856
C       -1.47931138      -0.24148234      -0.22090688
C        0.90318710      -1.09115983      -0.00688724
H        0.28010092       0.21254749      -1.51695596
H       -0.17041037       2.18797312      -0.08432527
H        1.51141439       1.61469374       0.07084363
H        0.32961297       1.27995589       1.37279862
H       -1.58922250      -0.37101743       0.87918673
H       -2.13099484       0.60673369      -0.50648058
H       -1.86106934      -1.16319278      -0.70296746
H        0.82401747      -1.36013076       1.06592426
H        1.97120331      -0.92271556      -0.24489663
H        0.57717075      -1.96906348      -0.60151104
14
Properties=species:S:1:pos:R:3 energy=-4305.170793189098 smiles=CCCC name=tbu config_type=start_33 pbc="F F F"
C        0.00600972       0.07294708      -0.44470801
C        0.44692336       1.36869095       0.27199144
C       -1.43097062      -0.22168566      -0.19725712
C        0.91410090      -1.13502817      -0.02145476
H        0.07469108       0.23383251      -1.54195604
H       -0.14368963       2.25356688      -0.03113673
H        1.51445161       1.58739826       0.08561437
H        0.32146703       1.24041011       1.36566138
H       -1.72869150      -0.41398457       0.85510327
H       -2.05855516       0.59992631      -0.59401942
H       -1.68247666      -1.12176922      -0.79626254
H        0.77555053      -1.26313324       1.07365174
H        1.98528869      -0.90671044      -0.18139737
H        0.68345525      -2.10460652      -0.50576496
14
Properties=species:S:1:pos:R:3 energy=-4305.170793189098 smiles=CCCC name=tbu config_type=start_34 pbc="F F F"
C        0.03263461       0.09445685      -0.43787270
C        0.43879335       1.33408275       0.27541061
C       -1.46398110      -0.22170670      -0.21121187
C        0.92823849      -1.12245629      -0.01783400
H        0.18774648       0.32782414      -1.51316307