14
Properties=species:S:1:pos:R:3 energy=-4305.117114564319 name=nbu_bent smiles=CCCC config_type=start_0 pbc="F F F"
C       -1.55823134       0.39892174       0.02024234
C       -0.78099707      -0.39533802      -0.68263360
C        0.78908875      -1.02575388       0.07805685
C        1.77229977       0.64495440       0.50554272
H       -1.15077311       1.42670315       0.24524674
H       -2.26726867      -0.08320135       0.95940823
H       -2.76038251       0.79328109      -0.54809726
H       -0.51533086       0.06707193      -1.64374823
H       -0.95692652      -1.73008471      -1.02629254
H        0.36272331      -1.65650385       0.98267862
H        1.60658056      -1.81082677      -0.47628073
H        2.67822893       0.35445466       1.04400611
H        1.18717486       1.55501745       1.18890609
H        2.26651726       1.12806432      -0.43105478
14
Properties=species:S:1:pos:R:3 energy=-4305.117114564319 name=nbu_bent smiles=CCCC config_type=start_1 pbc="F F F"
C       -1.57118866       0.37919626       0.01714966
C       -0.27297493      -0.57512598      -0.70199640
C        0.68527725      -0.51020412       0.18706715
C        1.36783423       0.30383360       0.41748128
H       -1.19368089       1.36874685       0.23251126
H       -1.48091133      -0.04435265       0.99932177
H       -2.18326349       0.23785491      -0.65041474
H        0.04293086      -0.08196193      -1.65368177
H       -1.03224948      -1.16984529      -0.90536746
H        0.53583469      -0.89798215       1.16480138
H        1.12925944      -1.16656923      -0.36798527
H        2.30814907       0.05434134       0.96665189
H        0.83623314       0.82328455       0.99665991
H        1.47244274       0.88842568      -0.48964922
14
Properties=species:S:1:pos:R:3 energy=-4305.117114564319 name=nbu_bent smiles=CCCC config_type=start_2 pbc="F F F"
C       -1.46624290       0.41467368       0.04556528
C       -0.57700495      -0.54710409      -0.42300948
C        0.75227567      -0.69253862      -0.30503170
C        1.48807231       0.41871503       0.63201057
H       -0.75270107       1.51752749       0.32240340
H       -1.78223283      -0.06499936       1.14762538
H       -2.45328436       0.41708393       0.00452098
H       -0.61364858      -0.15958459      -1.42790707
H       -1.30457983      -1.45314369      -1.47492314
H        0.60430588      -1.14395447       0.51679149
H        1.49703517      -1.35491719      -1.02649987
H        2.08029086       0.04476157       1.12354441
H        0.99830836       1.10971303       1.60209219
H        1.90814515       1.01804900      -0.46546960
14
Properties=species:S:1:pos:R:3 energy=-4305.117114564319 name=nbu_bent smiles=CCCC config_type=start_3 pbc="F F F"
C       -1.66317710       0.36344432      -0.00817328
C       -0.47696705      -0.42335991      -0.96162052
C        0.72209033      -0.84341938       0.57015570
C        1.65206169       0.53007297       0.29101343
H       -1.59175293       1.27792251       0.15535460
H       -1.96594717      -0.06255464       0.81110462
H       -2.49036164       0.61405207      -1.20303298
H        0.14124858       0.14469459      -1.86952293
H       -0.68459617      -1.44678631      -0.45673686
H        0.29425212      -1.41053153       1.63068851
H        1.23880483      -1.62247881       0.18223387
H        2.90608714       0.36403443       0.88711359
H        1.02509964       1.26858897       0.58347381
H        1.83081485       0.99844100      -0.45523440
14
Properties=species:S:1:pos:R:3 energy=-4305.117114564319 name=nbu_bent smiles=CCCC config_type=start_4 pbc="F F F"
C       -2.74345210       1.79494362      -0.91552163
C       -1.70347361       0.94022286      -1.66274135
C       -0.44982370       0.66453732      -0.81973257
C        0.36877947       1.88434971      -0.41553478
H       -2.32862614       2.76484595      -0.69779417
H       -3.03243337       1.35823790      -0.03295849
H       -3.64129101       1.92044393      -1.55626206
H       -1.43637286       1.45707694      -2.61829162
H       -2.20479624       0.02450007      -1.91636196
H       -0.72101243       0.15013422       0.07812103
H        0.18052677      -0.07209802      -1.34702364
H        1.26995411       1.65258472       0.13290955
H       -0.18346057       2.57914260       0.22826939
H        0.66675242       2.40320898      -1.31088818
14
Properties=species:S:1:pos:R:3 energy=-4305.117114564319 name=nbu_bent smiles=CCCC config_type=start_5 pbc="F F F"
C       -0.38596790      -1.01682562       0.95291363
C        0.64950161      -1.91068686       0.27811135
C        1.92418970      -2.20049532       1.08485657
C        2.77135453      -0.93556171       1.33855878
H       -0.01582786       0.03060405       1.17555217
H       -0.71574663      -1.48579190       1.99168849
H       -1.30235499      -0.88930793       0.35775006
H        0.96397286      -1.47196694      -0.67913838
H        0.21562024      -2.92443007      -0.01529804
H        1.61957043      -2.70462022       2.06935897
H        2.55531323      -2.90529798       0.50275764
H        3.71642389      -1.24378872       1.87774845
H        2.20686857      -0.20084060       1.95729661
H        3.07220758      -0.38671898       0.39018418
14
Properties=species:S:1:pos:R:3 energy=-4305.117114564319 name=nbu_bent smiles=CCCC config_type=start_6 pbc="F F F"
C       -1.92600321      -1.39863685      -2.24060407
C       -0.91560227      -2.27053090      -2.94005048
C        0.37865361      -2.58116326      -2.14199866
C        1.22392183      -1.30171261      -1.79684786
H       -1.52616129      -0.38112315      -2.01818391
H       -2.27287342      -1.85649820      -1.26902370
H       -2.86231588      -1.25204218      -2.83539402
H       -0.63353394      -1.80097647      -3.89832993
H       -1.36008611      -3.27287133      -3.24311412
H        0.08042907      -3.09855778      -1.20127111
H        1.02865506      -3.30365415      -2.70495297
H        2.13965457      -1.58028595      -1.25533834
H        0.66425984      -0.56823443      -1.15382182
H        1.54354356      -0.76899948      -2.72731541
14
Properties=species:S:1:pos:R:3 energy=-4305.117114564319 name=nbu_bent smiles=CCCC config_type=start_7 pbc="F F F"
C       -1.20341679       2.17675485       2.27799607
C       -0.13836973       1.30006690       1.55542048
C        1.09571239       1.04520526       2.40712266
C        1.91621217       2.25050061       2.71987186
H       -0.81829271       3.17657315       2.49594191
H       -1.47530658       1.72894420       3.22775370
H       -2.08133012       2.28317818       1.63688202
H        0.16113394       1.78608647       0.60089993
H       -0.62908989       0.37294133       1.31145412
H        0.81812893       0.54407178       3.34875111
H        1.70718494       0.32625815       1.86068697
H        2.84672343       1.98908195       3.26599634
H        1.35914816       2.94653643       3.33938782
H        2.19541644       2.78548948       1.80661141
14
Properties=species:S:1:pos:R:3 energy=-4305.117114564319 name=nbu_bent smiles=CCCC config_type=start_8 pbc="F F F"
C       -2.93915324      -0.26308725       0.74828329
C       -1.88968670      -1.12204197       0.00303475
C       -0.61901322      -1.44755624       0.94259536
C        0.24101207      -0.15636308       1.15745984
H       -2.60540534       0.73789257       0.95945054
H       -3.27103886      -0.71567930       1.69795293
H       -3.84915696      -0.10197717       0.03894256
H       -1.54023157      -0.63675102      -0.94551272
H       -2.29109621      -2.12580921      -0.14422070
H       -0.94114759      -1.97169842       1.91124062
H        0.00163476      -2.17817977       0.41078540
H        1.22413751      -0.41721604       1.70901967
H       -0.33166035       0.57640489       1.73104287
H        0.53010880       0.36666856       0.25958013
14
Properties=species:S:1:pos:R:3 energy=-4305.117114564319 name=nbu_bent smiles=CCCC config_type=start_9 pbc="F F F"
C       -0.19026676       1.04120525      -0.71089129
C        0.83571470       0.15157797      -1.38766475
C        2.09337922      -0.08840176      -0.67747136
C        2.89912193       1.10515108      -0.23443584
H        0.26095134       2.05755743      -0.48169254
H       -0.47714114       0.58812530       0.26077707
H       -1.09448904       1.13311317      -1.23745456
H        1.06783157       0.62186102      -2.35191728
H        0.30192021      -0.77412079      -1.78743930
H        1.83970559      -0.58278758       0.23623938
H        2.73420524      -0.79921623      -1.25505140
H        3.76224049       0.82601204       0.30163833
H        2.35506835       1.80189711       0.45452313
H        3.20885120       1.64982144      -1.18028413
14
Properties=species:S:1:pos:R:3 energy=-4305.117114564319 name=nbu_bent smiles=CCCC config_type=start_10 pbc="F F F"
C       -1.59632454       0.49032552       0.02491876
C       -0.54807609      -0.55866456      -0.38045391
C        0.73485282      -0.78148503       0.17638197
C        1.61235878       0.49288039       0.08889186
H       -1.29306501       1.78727682       0.27367904
H       -1.95877750      -0.07484010       1.56835931
H       -2.51891296       0.53500200      -0.31594292
H       -0.15880366      -0.37084793      -1.35262775
H       -0.90351259      -1.76064547      -0.94767948
H        0.39119952      -1.21853612       1.39501446
H        1.35338803      -1.36859392      -0.59917033
H        2.62201812      -0.06173995       0.59039562
H        1.03203717       1.29715028       0.69355758
H        1.90330290       1.15685522      -1.05190793
14
Properties=species:S:1:pos:R:3 energy=-4305.117114564319 name=nbu_bent smiles=CCCC config_type=start_11 pbc="F F F"
C       -1.53309546       0.28779248       0.01247324
C       -0.50589591      -0.41179944      -1.00417609
C        0.73951318      -0.75447297       0.08874203
C        1.52777522       0.45590761       0.83413214
H       -1.05138899       1.00817318       0.20407896
H       -1.78940250      -0.05271390       0.39037069
H       -2.42473304       0.49613400      -0.88256908
H       -0.31359634       0.35595793      -1.94480225
H       -1.08566341      -1.13928453      -0.98398052
H        0.50735848      -1.33594988       0.75246554
H        1.38245197      -1.60880208      -0.24509567
H        2.36435988       0.47053595       1.42026238
H        0.99137083       1.08115172       1.49200842
H        1.83565710       0.85963478       0.13120393
14
Properties=species:S:1:pos:R:3 energy=-4305.117114564319 name=nbu_bent smiles=CCCC config_type=start_12 pbc="F F F"
C       -1.56500433       0.38896380       0.01870173
C       -0.52005496      -0.48870040      -0.69086912
C        0.73539022      -0.76016715       0.13411496
C        1.56519049       0.47001341       0.45850226
H       -1.17330317       1.39780629       0.23868400
H       -1.98628362      -0.09743031       1.11916845
H       -2.51319568       0.60574233      -0.74875389
H       -0.05362473      -0.07843923      -1.63237782
H       -1.03508439      -1.23635029      -0.94170289
H        0.44064105      -1.35309702       0.88647595
H        1.40900224      -1.59346681      -0.25382353
H        2.35055827       0.08345943       0.96745599
H        1.02542247       1.25352022       1.25581355
H        1.97859855       1.04713987      -0.59706604
14
Properties=species:S:1:pos:R:3 energy=-4305.117114564319 name=nbu_bent smiles=CCCC config_type=start_13 pbc="F F F"
C       -1.56441567       0.38915420       0.01869027
C       -0.53391704      -0.48176360      -0.69376088
C        0.73897578      -0.77579085       0.13100904
C        1.57494351       0.47877459       0.46452174
H       -1.17115083       1.39764371       0.23907400
H       -1.76189638      -0.03012369       0.83956155
H       -2.43045032       0.42539367      -0.44975811
H       -0.41877527       0.06354923      -1.66505218
H       -0.95409161      -1.66357971      -0.98995711
H        0.45791695      -1.20138898       1.26100405
H        1.32683776      -1.38392919      -0.59044247
H        2.63581973       0.32533657       1.04320201
H        0.99798553       1.12478178       0.92975245
H        1.76036145       0.96935013      -0.32363796
14
Properties=species:S:1:pos:R:3 energy=-4305.117114564319 name=nbu_bent smiles=CCCC config_type=start_14 pbc="F F F"
C       -1.56531531       0.38905733       0.01990175
C       -0.53255694      -0.48149959      -0.69442263
C        0.73976997      -0.76682611       0.15782560
C        1.57439718       0.46924531       0.43778937
H       -1.18240336       1.40053525       0.23907820
H       -1.72354386      -0.01952065       0.79783413
H       -2.41454989       0.39518529      -0.40674981
H       -0.47089650       0.08542061      -1.67024032
H       -0.98750801      -1.34219239      -0.92433386
H        0.43876098      -1.32079171       1.01555710
H        1.38273795      -1.54634326      -0.30360456
H        2.41685636       0.09703476       0.95496713
H        1.02525659       1.24013473       1.17359661
H        1.94953750       1.04161641      -0.59002043
14
Properties=species:S:1:pos:R:3 energy=-4305.117114564319 name=nbu_bent smiles=CCCC config_type=start_15 pbc="F F F"
C       -1.56410469       0.38906067       0.01749025
C       -0.52141506      -0.48896441      -0.69020737
C        0.73459603      -0.76913189       0.10729840
C        1.56573682       0.47954269       0.48523463
H       -1.16205064       1.39491475       0.23867980
H       -2.02463614      -0.10803335       1.16089587
H       -2.52909611       0.63595071      -0.79176219
H       -0.00150350      -0.10031061      -1.62718968
H       -1.00166799      -1.55773761      -1.00732614
H        0.45979702      -1.23369429       1.13192290
H        1.35310205      -1.43105274      -0.54066144
H        2.56952164       0.31176124       1.05569087
H        0.99815141       1.13816727       1.01196939
H        1.78942250       0.97487359      -0.33068357
14
Properties=species:S:1:pos:R:3 energy=-4305.117114564319 name=nbu_bent smiles=CCCC config_type=start_16 pbc="F F F"
C       -1.56483240       0.38864226       0.01996152
C       -0.51967479      -0.47402435      -0.71693247
C        0.73977627      -0.77480286       0.14336908
C        1.56043190       0.47119563       0.47467919
H       -1.17478258       1.38790432       0.23834387
H       -1.88328200      -0.06378300       0.95557900
H       -2.47191075       0.53148450      -0.65929959
H       -0.19631283       0.02438962      -1.66734410
H       -0.94452588      -1.65603022      -0.97506217
H        0.45488394      -1.20402337       1.27224252
H        1.32443539      -1.38776107      -0.56843962
H        2.31470589       0.07878580       0.97925231
H        1.02557193       1.25913110       1.30331643
H        1.99214931       1.04923365      -0.59254563
14
Properties=species:S:1:pos:R:3 energy=-4305.117114564319 name=nbu_bent smiles=CCCC config_type=start_17 pbc="F F F"
C       -1.56458760       0.38947574       0.01743048
C       -0.53429721      -0.49643965      -0.66769753
C        0.73458973      -0.76115514       0.12175492
C        1.57970210       0.47759237       0.44834481
H       -1.16967142       1.40754568       0.23941413
H       -1.86489800      -0.06377100       1.00315100
H       -2.47173525       0.49965150      -0.53921241
H       -0.27608717      -0.03927962      -1.63008590
H       -1.04465012      -1.24389978      -0.95659783
H        0.44367406      -1.35046263       0.87523748
H        1.41140461      -1.58963493      -0.27582638
H        2.67167211       0.33001020       1.03140569
H        0.99783607       1.11917090       0.88224957
H        1.74681069       0.96725635      -0.32815837
14
Properties=species:S:1:pos:R:3 energy=-4305.117114564319 name=nbu_bent smiles=CCCC config_type=start_18 pbc="F F F"
C       -1.57960076       0.42235875       0.02166522
C       -0.47902248      -0.46903046      -0.68711394
C        0.73699548      -0.82345316       0.12333906
C        1.53054723       0.49529583       0.46392638
H       -1.18985066       1.43718560       0.24232306
H       -1.77136189      -0.00564331       0.99411008
H       -2.41034680       0.45811745      -0.61370106
H       -0.17222272       0.01655856      -1.64090006
H       -0.99687811      -1.52325081      -0.97815379
H        0.37383530      -1.39839602       1.04713621
H        1.46559537      -1.57897418      -0.43048211
H        2.43979321       0.23492585       1.00828012
H        0.97946155       1.17543407       1.10143544
H        1.80369231       1.03407743      -0.45246491
14
Properties=species:S:1:pos:R:3 energy=-4305.117114564319 name=nbu_bent smiles=CCCC config_type=start_19 pbc="F F F"
C       -1.54981924       0.35575925       0.01572678
C       -0.57494952      -0.50143354      -0.69751606
C        0.73737052      -0.71250484       0.14178494
C        1.60958677       0.45349217       0.45909762
H       -1.15460334       1.35826440       0.23543494
H       -1.97681811      -0.12191069       0.96461992
H       -2.53329920       0.57301855      -0.58481094
H       -0.30017728      -0.03144856      -1.65652994
H       -0.99229789      -1.37667919      -0.95350621
H        0.52472270      -1.15608998       1.10034379
H        1.27024463      -1.39842182      -0.41378389
H        2.54658479       0.17387015       1.00237788
H        1.04394645       1.20286793       1.08413056
H        1.93526769       0.98241257      -0.46823909
14
Properties=species:S:1:pos:R:3 energy=-4305.117114564319 name=nbu_bent smiles=CCCC config_type=start_20 pbc="F F F"
C       -1.53181449       0.40303555       0.02710409
C       -0.55477216      -0.44177678      -0.69367729
C        0.77919338      -0.77501299       0.14146905
C        1.53756756       0.43023773       0.44937564
H       -1.13261779       1.41424042       0.24849544
H       -1.95971933      -0.07044486       0.95166617
H       -2.51526679       0.63016240      -0.59806117
H       -0.27032204       0.05413695      -1.64936639
H       -0.93907832      -1.45804355      -0.95436536
H        0.46707470      -1.30224772       1.08519049
H        1.42844079      -1.50694202      -0.40466981
H        2.45286776       0.14289759       0.98912296
H        0.99499156       1.04769731       1.06964365
H        1.74203041       1.00208767      -0.48931964
14
Properties=species:S:1:pos:R:3 energy=-4305.117114564319 name=nbu_bent smiles=CCCC config_type=start_21 pbc="F F F"
C       -1.59760551       0.37508245       0.01028791
C       -0.49919984      -0.52868722      -0.69095271
C        0.69517262      -0.76094501       0.12365495
C        1.60256644       0.51855027       0.47364836
H       -1.21183621       1.38120958       0.22926256
H       -1.78846067      -0.05710914       1.00706383
H       -2.42837921       0.40097360      -0.60045083
H       -0.20207796      -0.06902695      -1.64806361
H       -1.05009768      -1.44188645      -0.97729464
H        0.43148330      -1.25223828       1.06228951
H        1.30739921      -1.47045398      -0.43959619
H        2.53351024       0.26589841       1.02153504
H        1.02841644       1.33060469       1.11592235
H        1.99692959       1.01440233      -0.43138436
14
Properties=species:S:1:pos:R:3 energy=-4305.117114564319 name=nbu_bent smiles=CCCC config_type=start_22 pbc="F F F"
C       -1.57396573       0.37981024       0.07949703
C       -0.51495138      -0.45658983      -0.69729005
C        0.70765275      -0.77094676       0.11665784
C        1.59252473       0.45363452       0.45041781
H       -1.18141421       1.38884386       0.29771312
H       -1.86464475      -0.05624954       0.92329414
H       -2.46487807       0.52320776      -0.66056152
H       -0.18905967       0.10997981      -1.64119945
H       -1.11764105      -1.46697379      -1.00161676
H        0.45765455      -1.26936782       1.01254725
H        1.37308574      -1.47876087      -0.48136084
H        2.58153813       0.11307109       0.98774459
H        1.01889021       1.19930857       1.02976548
H        1.88027148       1.01654812      -0.51608194
14
Properties=species:S:1:pos:R:3 energy=-4305.117114564319 name=nbu_bent smiles=CCCC config_type=start_23 pbc="F F F"
C       -1.55545427       0.39830776      -0.04210503
C       -0.53902062      -0.51387417      -0.68733995
C        0.76671325      -0.76501124       0.14846616
C        1.54760927       0.49515348       0.47260619
H       -1.16303979       1.40660614       0.18004488
H       -1.88353525      -0.07130446       1.03543586
H       -2.47876793       0.50792824      -0.53795048
H       -0.28334033      -0.12486981      -1.65623055
H       -0.87153495      -1.43295621      -0.93004324
H        0.44090345      -1.28511818       1.13493275
H        1.36275426      -1.49863513      -0.36290516
H        2.40483987       0.29572491       1.02291341
H        1.00451779       1.17899343       1.15580052
H        1.85868852       0.99994188      -0.40462206
14
Properties=species:S:1:pos:R:3 energy=-4305.117114564319 name=nbu_bent smiles=CCCC config_type=start_24 pbc="F F F"
C       -1.56064574       0.39347514      -0.01160672
C       -0.51523480      -0.45070202      -0.68045791
C        0.69931645      -0.77466169       0.13169484
C        1.59403617       0.44431892       0.46591225
H       -1.16757382       1.40196629       0.20981734
H       -1.86162454      -0.01742791       1.01955428
H       -2.45704571       0.56056744      -0.55931490
H       -0.24006207      -0.01679590      -1.64278541
H       -0.98629296      -1.44972439      -0.95690900
H        0.39103942      -1.28930289       1.09671376
H        1.31155674      -1.50276383      -0.40007103
H        2.48651506       0.20957942       1.01320395
H        1.04363397       1.14410602       1.12273295
H        1.89963760       0.96167881      -0.43142797
14
Properties=species:S:1:pos:R:3 energy=-4305.117114564319 name=nbu_bent smiles=CCCC config_type=start_25 pbc="F F F"
C       -1.56877426       0.38464286       0.04899872
C       -0.53873720      -0.51976198      -0.70417209
C        0.77504955      -0.76129631       0.13342916
C        1.54609783       0.50446908       0.45711175
H       -1.17688018       1.39348371       0.26794066
H       -1.88655546      -0.11012609       0.93917572
H       -2.48660029       0.47056856      -0.63919710
H       -0.23233793       0.00190590      -1.65464459
H       -1.00288304      -1.45020561      -0.97475100
H        0.50751858      -1.26518311       1.05076624
H        1.42428326      -1.47463217      -0.44419497
H        2.49986294       0.19921658       0.99745405
H        0.97977403       1.23419598       1.06283305
H        1.83932240       1.05481119      -0.48927603
14
Properties=species:S:1:pos:R:3 energy=-4305.117114564319 name=nbu_bent smiles=CCCC config_type=start_26 pbc="F F F"
C       -1.55023148       0.36633229       0.01740863
C       -0.51368597      -0.48103315      -0.67652737
C        0.73203262      -0.78417105       0.13838465
C        1.56027497       0.48931630       0.44004980
H       -1.19992983       1.43974641       0.24104005
H       -1.90106996      -0.11327286       0.92703160
H       -2.47194161       0.56682068      -0.59998061
H       -0.23491474       0.06482846      -1.62873577
H       -1.04534159      -1.43315644      -0.96425989
H        0.51974062      -1.24590324       1.05193460
H        1.30723550      -1.47999057      -0.42613044
H        2.42165800       0.29948175       0.99349641
H        1.01645753       1.18365532       1.13134430
H        1.87780318       0.98164810      -0.41834788
14
Properties=species:S:1:pos:R:3 energy=-4305.117114564319 name=nbu_bent smiles=CCCC config_type=start_27 pbc="F F F"
C       -1.57918852       0.41178571       0.01998337
C       -0.54028603      -0.48943085      -0.70810263
C        0.74233338      -0.75178695       0.12673935
C        1.57985903       0.45947170       0.48297420
H       -1.14452417       1.35570359       0.23671795
H       -1.84711004      -0.01428114       1.03169840
H       -2.47170439       0.46431532      -0.59853139
H       -0.23748526      -0.07971846      -1.66869423
H       -0.94383441      -1.46677356      -0.96740011
H        0.37881738      -1.30858276       1.09554540
H        1.42860450      -1.49740543      -0.41813556
H        2.56472000       0.10931425       1.01716159
H        1.00695047       1.19464668       1.05422170
H        1.86115682       1.03484190      -0.50235612
14
Properties=species:S:1:pos:R:3 energy=-4305.117114564319 name=nbu_bent smiles=CCCC config_type=start_28 pbc="F F F"
C       -1.58734477       0.37439065       0.01348415
C       -0.53324244      -0.47069129      -0.67350923
C        0.75750964      -0.76846451       0.11481907
C        1.55898947       0.46248692       0.46120925
H       -1.13270948       1.42261282       0.24776243
H       -1.84685760      -0.03714822       0.96763674
H       -2.47654488       0.46988210      -0.65106207
H       -0.19148849       0.07025297      -1.61882114
H       -0.88949130      -1.41949992      -0.96213099
H        0.45766652      -1.26709677       1.10534053
H        1.32317296      -1.49848074      -0.38400026
H        2.52415269       0.21056935       1.01226239
H        0.98182606       1.26048486       1.07277900
H        1.92696402       0.96556536      -0.44289335
14
Properties=species:S:1:pos:R:3 energy=-4305.117114564319 name=nbu_bent smiles=CCCC config_type=start_29 pbc="F F F"
C       -1.54207523       0.40372735       0.02390785
C       -0.52072956      -0.49977271      -0.71112077
C        0.71685636      -0.76749349       0.15030493
C        1.58114453       0.48630108       0.46181475
H       -1.21174452       1.37283718       0.22999557
H       -1.90132240      -0.09040578       0.99109326
H       -2.46710112       0.56125390      -0.54744993
H       -0.28091151      -0.08514297      -1.67860886
H       -1.09968470      -1.48043008      -0.96952901
H        0.44089148      -1.28738923       1.04213947
H        1.41266704      -1.47891526      -0.46026574
H        2.46222531       0.19822665       0.99839561
H        1.04158194       1.11781714       1.11278700
H        1.81199598       1.05092464      -0.47781065
14
Properties=species:S:1:pos:R:3 energy=-4305.117114564319 name=nbu_bent smiles=CCCC config_type=start_30 pbc="F F F"
C       -1.56929332       0.38929010       0.01803272
C       -0.54549145      -0.47667457      -0.69381497
C        0.74498936      -0.78488829       0.13243344
C        1.58527330       0.48258833       0.46379535
H       -1.19038275       1.39861131       0.23642623
H       -1.81836066       0.01332801       1.02377250
H       -2.47245828       0.42257768      -0.63328452
H       -0.20108360      -0.02419939      -1.64599568
H       -1.01301080      -1.41598401      -0.96375755
H        0.54221748      -1.23214289       1.06207389
H        1.28704799      -1.47564506      -0.41959093
H        2.45982586       0.18852319       0.99865366
H        1.04708888       1.10101734       1.11225073
H        1.80268979       1.05103156      -0.47663898
14
Properties=species:S:1:pos:R:3 energy=-4305.117114564319 name=nbu_bent smiles=CCCC config_type=start_31 pbc="F F F"
C       -1.56012668       0.38882790       0.01935928
C       -0.50848055      -0.49378943      -0.69081503
C        0.72937664      -0.75106971       0.13269056
C        1.55486070       0.46619967       0.45922865
H       -1.15407125       1.39683869       0.24133177
H       -1.92981934      -0.14088201       0.93495750
H       -2.47118772       0.60855832      -0.56522748
H       -0.27131640       0.00930939      -1.65143432
H       -0.97616520      -1.48394599      -0.96790245
H        0.35634052      -1.32234311       1.08540611
H        1.44879201      -1.50175094      -0.42467507
H        2.52655214       0.22027281       1.01200434
H        0.97631912       1.27728466       1.07331527
H        1.93627021       0.96545844      -0.44406502
14
Properties=species:S:1:pos:R:3 energy=-4305.117114564319 name=nbu_bent smiles=CCCC config_type=start_32 pbc="F F F"
C       -1.54002372       0.38576492       0.02165001
C       -0.52205936      -0.49442895      -0.69081644
C        0.71301262      -0.77787734       0.12073712
C        1.56461010       0.49632817       0.46879576
H       -1.06952208       1.38708249       0.25137904
H       -1.88745037      -0.09657388       0.95277073
H       -2.47334161       0.52921574      -0.60664137
H       -0.23212703       0.01232789      -1.64514638
H       -0.92485350      -1.42848143      -0.95378827
H        0.41305916      -1.27383931       1.11750942
H        1.27862366      -1.50940978      -0.37548546
H        2.51742247       0.15589924       1.00146526
H        1.00466131       1.18114844       1.06103337
H        1.81633775       1.07601652      -0.50822504
14
Properties=species:S:1:pos:R:3 energy=-4305.117114564319 name=nbu_bent smiles=CCCC config_type=start_33 pbc="F F F"
C       -1.58939628       0.39235308       0.01574199
C       -0.53191264      -0.47603505      -0.69381356
C        0.76135338      -0.75808066       0.14438688
C        1.57552390       0.45245983       0.45422824
H       -1.27493192       1.40836751       0.22637896
H       -1.86072963      -0.03098012       1.00595927
H       -2.47030439       0.50192026      -0.59187063
H       -0.24027297      -0.02721789      -1.65228362
H       -1.06432250      -1.47144857      -0.97787173
H        0.48549884      -1.28064669       1.02997058
H        1.45721634      -1.46798622      -0.46878054
H        2.46895553       0.25289676       1.00919274
H        1.01874669       1.19715356       1.12453263
H        1.92262225       0.94047348      -0.41247896
14
Properties=species:S:1:pos:R:3 energy=-4305.117114564319 name=nbu_bent smiles=CCCC config_type=start_34 pbc="F F F"
C       -1.56277139       0.41386285       0.02257730
C       -0.54004265      -0.51064325      -0.69039439