14
Properties=species:S:1:pos:R:3 energy=-4305.170793189098 smiles=CCCC name=tbu config_type=start_0 pbc="F F F"
C       -0.01967581       0.06696201      -0.42917432
C        0.48616243       1.32093760       0.28661467
C       -1.45326918      -0.22040573      -0.23009006
C        0.91586512      -1.07866223      -0.00799043
H        0.12419842       0.27054834      -1.52874730
H       -0.19799534       2.20543709       0.06672536
H        1.47216833       1.64817457      -0.15694039
H        0.55489861       1.18442082       1.41485177
H       -1.77167264      -0.35887060       0.79346108
H       -2.13067115       0.55864783      -0.73222724
H       -1.76826048      -1.21731608      -0.67106627
H        0.83558269      -1.26827380       1.12541673
H        1.96968152      -0.86738952      -0.16382996
H        0.73638210      -2.09745239      -0.54658842
14
Properties=species:S:1:pos:R:3 energy=-4305.170793189098 smiles=CCCC name=tbu config_type=start_1 pbc="F F F"
C        0.03890108       0.08393604      -0.46602970
C        0.43718361       1.32216222       0.27182295
C       -1.46575426      -0.23610360      -0.23639053
C        0.91755129      -1.08996826       0.02073476
H        0.31130458       0.34044969      -1.49624566
H       -0.16014326       2.23944839       0.03037897
H        1.52262628       1.64091320       0.02119200
H        0.32692748       1.20228966       1.30154099
H       -1.55959422      -0.78365921       0.84818104
H       -2.10040393       0.73297692      -0.22204337
H       -1.77725967      -1.00433265      -1.02436771
H        0.93400384      -0.99830996       1.18273282
H        2.00788588      -1.08585512      -0.54179666
H        0.33349688      -2.11985068      -0.15021648
14
Properties=species:S:1:pos:R:3 energy=-4305.170793189098 smiles=CCCC name=tbu config_type=start_2 pbc="F F F"
C        0.01132779       0.07304253      -0.44630775
C        0.46594612       1.36526320       0.28176684
C       -1.45047591      -0.23796952      -0.23774935
C        0.91669681      -1.08962721       0.00231610
H        0.17231273       0.19817983      -1.49443321
H       -0.29550937       2.18865051       0.12543503
H        1.51791062       1.67660294      -0.04343463
H        0.48297829       1.11685303       1.32984167
H       -1.77778006      -0.54560121       0.87057046
H       -2.08855891       0.66753450      -0.56023436
H       -1.79917530      -1.11279515      -0.86816161
H        0.98633541      -1.20644881       1.17730083
H        2.01787072      -1.08417141      -0.36927588
H        0.43618353      -2.10108315      -0.33606655
14
Properties=species:S:1:pos:R:3 energy=-4305.170793189098 smiles=CCCC name=tbu config_type=start_3 pbc="F F F"
C        0.06277962       0.02570909      -0.48495098
C        0.38746475       1.35823935       0.26385298
C       -1.39411629      -0.17235329      -0.19903160
C        0.90423037      -1.12112246       0.01869793
H        0.13626675       0.15289980      -1.58352878
H       -0.42364517       2.12407555       0.11902863
H        1.41734926       1.81328315       0.04541802
H        0.39394182       1.08945616       1.40707128
H       -1.49937740      -0.51984841       0.88456901
H       -1.95985283       0.75032239      -0.48012745
H       -1.90857538      -1.03312293      -0.82482388
H        0.75428626      -1.23487633       1.11662569
H        1.99199660      -1.04739403      -0.31735773
H        0.54926137      -2.05580822      -0.51810600
14
Properties=species:S:1:pos:R:3 energy=-4305.170793189098 smiles=CCCC name=tbu config_type=start_4 pbc="F F F"
C        0.02692178       0.12260990      -0.46470884
C        0.46566524       1.38383267       0.26353237
C       -1.46356042      -0.26723570      -0.18010115
C        0.90423705      -1.12368320       0.00296633
H        0.19912348       0.17648285      -1.51567114
H       -0.04694639       2.24977628      -0.14542836
H        1.48563528       1.58617434       0.03633623
H        0.38523366       1.17161975       1.30834182
H       -1.57493962      -0.43562482       0.84999172
H       -2.09168359       0.57642420      -0.53378015
H       -1.82840800      -1.17259919      -0.70805939
H        0.50422706      -1.58820428       1.03915471
H        1.98991886      -0.88122288       0.05834742
H        0.75278822      -1.94240265      -0.81637363
14
Properties=species:S:1:pos:R:3 energy=-4305.170793189098 smiles=CCCC name=tbu config_type=start_5 pbc="F F F"
C        0.00778222       0.04373872      -0.37309857
C        0.44324854       1.37869442       0.23111314
C       -1.42828356      -0.17496709      -0.17475861
C        0.91767730      -1.15720300      -0.02656253
H        0.27261538       0.04262056      -1.45745387
H       -0.34358578       2.05727054      -0.04066983
H        1.40904767       1.81020863      -0.05594731
H        0.34942485       1.31809217       1.34775044
H       -1.82882692      -0.16622718       0.88050183
H       -2.02600928       0.62208601      -0.74092807
H       -1.75277172      -1.15082188      -0.72635284
H        0.59766870      -1.84800687       0.96493799
H        1.98478450      -0.72781711      -0.03755045
H        1.02702391      -1.91651325      -0.97859411
14
Properties=species:S:1:pos:R:3 energy=-4305.170793189098 smiles=CCCC name=tbu config_type=start_6 pbc="F F F"
C        0.02789395       0.03709606      -0.43384020
C        0.47339488       1.33978745       0.28847863
C       -1.51638901      -0.23086209      -0.20407070
C        0.93739571      -1.05534371      -0.01795175
H        0.24804638       0.19933686      -1.50675691
H       -0.10182648       2.21151551      -0.06283499
H        1.57660539       1.47221390       0.10263653
H        0.39435500       1.17353526       1.34944758
H       -1.73076845      -0.18687998       0.90257120
H       -2.06786152       0.54077188      -0.84004236
H       -1.82789126      -1.22472608      -0.61695798
H        0.76676580      -1.34707329       1.05580684
H        1.91512749      -0.78898291      -0.30806095
H        0.73300105      -2.01384526      -0.63271271
14
Properties=species:S:1:pos:R:3 energy=-4305.170793189098 smiles=CCCC name=tbu config_type=start_7 pbc="F F F"
C        0.00738304       0.12028997      -0.46256237
C        0.43722057       1.35567604       0.29910447
C       -1.37046313      -0.27167515      -0.17550517
C        0.86590479      -1.09106587      -0.05668192
H        0.21757127       0.39269826      -1.56458058
H        0.11425548       2.23511940      -0.45194104
H        1.63662164       1.28500747       0.41703698
H       -0.11931542       1.41414940       1.33203080
H       -1.69962747      -0.41442393       0.91682780
H       -2.13972483       0.47342002      -0.55227326
H       -1.59000851      -1.19505775      -0.63687917
H        0.84339019      -1.15169157       1.02592079
H        2.02068907      -1.20287775      -0.33783109
H        0.41093577      -2.06846564      -0.36840205
14
Properties=species:S:1:pos:R:3 energy=-4305.170793189098 smiles=CCCC name=tbu config_type=start_8 pbc="F F F"
C        0.01792345       0.07129421      -0.41302233
C        0.46721268       1.38640014       0.26806370
C       -1.43462143      -0.25076961      -0.21434215
C        0.88483527      -1.12129344      -0.04004030
H        0.27210810       0.20978800      -1.50113605
H       -0.08401507       2.26328271      -0.14275242
H        1.50918067       1.53706618       0.21923592
H        0.18684855       1.35699606       1.33400055
H       -1.66058793      -0.52067040       0.82113648
H       -2.12690041       0.60913994      -0.47984440
H       -1.79404926      -1.12357895      -0.78409624
H        0.91444171      -1.25304602       1.13127244
H        1.96204530      -0.91114096      -0.29422683
H        0.57114225      -2.07102726      -0.47980666
14
Properties=species:S:1:pos:R:3 energy=-4305.170793189098 smiles=CCCC name=tbu config_type=start_9 pbc="F F F"
C        0.04243597       0.07837643      -0.41763678
C        0.44700068       1.39809739       0.26043940
C       -1.45009265      -0.23400574      -0.19949947
C        0.91048235      -1.15247074      -0.03976340
H        0.23630315       0.21721034      -1.48800309
H       -0.19024236       2.20955871      -0.19429165
H        1.55770517       1.52654403       0.18634705
H        0.14665208       1.31482067       1.32913345
H       -1.72969118      -0.43488033       0.87024743
H       -2.10715464       0.63186997      -0.46824344
H       -1.79037341      -1.09479780      -0.75997850
H        0.79625181      -1.40535132       1.08333142
H        2.00800039      -0.87337795      -0.22289804
H        0.65027838      -2.04687531      -0.54630518
14
Properties=species:S:1:pos:R:3 energy=-4305.170793189098 smiles=CCCC name=tbu config_type=start_10 pbc="F F F"
C        0.05935730       0.08305448      -0.45149574
C        0.40657258       1.36798965       0.27489750
C       -1.40963502      -0.21120097      -0.19637665
C        0.89479841      -1.16242646      -0.02773273
H        0.22054125       0.25943963      -1.49929151
H       -0.19712649       2.18081926      -0.13637875
H        1.46741796       1.68288242       0.24460565
H        0.15752369       1.32746882       1.35131312
H       -1.58766246      -0.36427954       0.88688375
H       -2.06204731       0.56105780      -0.55503006
H       -1.77568935      -1.13614950      -0.72594395
H        0.95063482      -1.23903636       1.13420217
H        1.92035938      -1.01450520      -0.36861776
H        0.46855853      -2.06331917      -0.49151104
14
Properties=species:S:1:pos:R:3 energy=-4305.170793189098 smiles=CCCC name=tbu config_type=start_11 pbc="F F F"
C        0.00063091       0.10630793      -0.43556291
C        0.50977003       1.35424754       0.24974291
C       -1.46761754      -0.26215024      -0.19801223
C        0.88761398      -1.07315244       0.00715879
H        0.03540740       0.15458163      -1.51540164
H       -0.02710085       2.25523346      -0.17372578
H        1.70526733       1.39268606       0.12770824
H        0.28418344       1.32093470       1.38623111
H       -1.70770659      -0.78126615       0.81834076
H       -2.18733688       0.52482235      -0.37947988
H       -1.67063214      -1.06023702      -1.03199971
H        0.69641082      -1.33758733       1.05494286
H        1.94715692      -0.77507076      -0.14457044
H        0.73363863      -2.06894366      -0.58869827
14
Properties=species:S:1:pos:R:3 energy=-4305.170793189098 smiles=CCCC name=tbu config_type=start_12 pbc="F F F"
C       -0.01595707       0.05896933      -0.37227245
C        0.52387872       1.37011683       0.26814790
C       -1.51929953      -0.25646678      -0.23790407
C        0.91439155      -1.08109912      -0.00921891
H        0.15415643       0.13759656      -1.45908697
H       -0.17075975       2.18915409      -0.05165527
H        1.56065662       1.62929105      -0.01542526
H        0.56789868       1.31150420       1.33484211
H       -1.80751739      -0.40301953       0.82147611
H       -2.07933341       0.57673165      -0.65795758
H       -1.73572234      -1.17518272      -0.88422504
H        0.93294753      -1.42057723       1.03484725
H        1.95039557      -0.79126769      -0.17558484
H        0.76241205      -2.02797980      -0.69664040
14
Properties=species:S:1:pos:R:3 energy=-4305.170793189098 smiles=CCCC name=tbu config_type=start_13 pbc="F F F"
C        0.04759901       0.02953729      -0.46942016
C        0.44596083       1.35281080       0.28559902
C       -1.49200500      -0.20394155      -0.22286873
C        0.93073739      -1.11989610       0.00522884
H        0.22328998       0.31395722      -1.53580136
H       -0.40199337       2.15778461       0.27985870
H        1.39677023       1.76927412      -0.27382799
H        0.69764906       1.20331225       1.40528206
H       -1.72224712      -0.08422174       0.86803670
H       -2.12341850       0.55988499      -0.60874725
H       -1.78596146      -1.14159918      -0.66913818
H        0.69676946      -1.44116235       1.03899624
H        2.00332578      -0.85673814      -0.05364747
H        0.80157885      -2.06150628      -0.60190922
14
Properties=species:S:1:pos:R:3 energy=-4305.170793189098 smiles=CCCC name=tbu config_type=start_14 pbc="F F F"
C        0.06685657       0.05883723      -0.45653612
C        0.39011592       1.38112506       0.27049878
C       -1.45304691      -0.21305897      -0.19905445
C        0.92693189      -1.16026901      -0.01823785
H        0.33843224       0.20257958      -1.60596131
H       -0.11646820       2.26296615      -0.25732203
H        1.47048704       1.49507906       0.33398113
H       -0.00879525       1.47160220       1.34167285
H       -1.39318952      -0.57805550       0.89041144
H       -2.06303332       0.81316645      -0.17199154
H       -1.89383832      -0.96501800      -0.94388364
H        0.92724082      -1.21914293       1.07129341
H        2.01515467      -1.01266721      -0.37929123
H        0.52800165      -2.14666067      -0.40765911
14
Properties=species:S:1:pos:R:3 energy=-4305.170793189098 smiles=CCCC name=tbu config_type=start_15 pbc="F F F"
C       -0.00879640       0.05253015      -0.40785111
C        0.47594205       1.35004796       0.26478882
C       -1.49183222      -0.23427133      -0.22113919
C        0.95408416      -1.09536310      -0.02780035
H        0.14115930       0.20762903      -1.51090466
H        0.01457144       2.29096669      -0.16195211
H        1.58386795       1.40424302       0.34333826
H        0.16357149       1.34503554       1.35981860
H       -1.64284838      -0.40450648       0.82667160
H       -2.10330595       0.61969273      -0.59850880
H       -1.89201473      -1.13817845      -0.74839330
H        0.90914265      -1.20450918       1.05026226
H        2.03880364      -0.82631703      -0.32622619
H        0.60835102      -2.04615654      -0.49773402
14
Properties=species:S:1:pos:R:3 energy=-4305.170793189098 smiles=CCCC name=tbu config_type=start_16 pbc="F F F"
C        0.01359699       0.04152232      -0.46531375
C        0.45984806       1.29610364       0.27186200
C       -1.45504138      -0.23594169      -0.22193226
C        0.89452823      -1.03403082       0.03062393
H        0.24700530       0.25282532      -1.57412720
H       -0.28390692       2.15690853       0.25295389
H        1.46564417       1.65170598      -0.10133697
H        0.60735366       0.96816014       1.37981528
H       -1.68958010      -0.40810647       0.84443866
H       -2.01527137       0.70503416      -0.55759096
H       -1.77286543      -1.02403094      -0.92951052
H        0.86863103      -0.95296998       1.12312579
H        1.95621067      -0.96050668      -0.43029577
H        0.63336217      -2.07834412      -0.35715288
14
Properties=species:S:1:pos:R:3 energy=-4305.170793189098 smiles=CCCC name=tbu config_type=start_17 pbc="F F F"
C        0.02964309       0.06825965      -0.42784833
C        0.43136646       1.38462188       0.24760662
C       -1.45475202      -0.23173573      -0.21207971
C        0.90301773      -1.14891129      -0.01112407
H        0.21176039       0.18230649      -1.51743979
H       -0.18830087       2.21430658       0.10278213
H        1.43260094       1.75244358      -0.04367765
H        0.54126961       1.15606181       1.40386241
H       -1.62316183      -0.43742297       0.85966528
H       -1.95541202       0.74735087      -0.49764392
H       -1.72184641      -1.08926065      -0.84481758
H        0.69145378      -1.39676757       1.10800130
H        1.94154732      -0.76289595      -0.17561072
H        0.73048771      -2.10990314      -0.52253921
14
Properties=species:S:1:pos:R:3 energy=-4305.170793189098 smiles=CCCC name=tbu config_type=start_18 pbc="F F F"
C        0.05533498       0.00731325      -0.45416451
C        0.43056961       1.33156512       0.27524895
C       -1.50602111      -0.18820136      -0.16329928
C        0.94233166      -1.07689426      -0.04738418
H        0.16691359       0.18024421      -1.56816750
H        0.04518992       2.24559279      -0.32317428
H        1.64383634       1.33890845       0.49430578
H       -0.08399723       1.27681963       1.30599730
H       -1.72235796      -0.45221180       0.90214267
H       -1.97135039       0.69789412      -0.58495002
H       -1.79456564      -1.13122768      -0.77278647
H        0.96062429      -1.08732734       1.10692435
H        2.00853314      -0.78410804      -0.30747199
H        0.65435892      -2.04650104      -0.54509540
14
Properties=species:S:1:pos:R:3 energy=-4305.170793189098 smiles=CCCC name=tbu config_type=start_19 pbc="F F F"
C        0.02192979       0.08551617      -0.39943447
C        0.46697385       1.35016059       0.24464272
C       -1.44213557      -0.24618434      -0.20799916
C        0.87064291      -1.10195482       0.00662367
H        0.21772707       0.18418701      -1.56614199
H       -0.30810433       2.08698337      -0.06774263
H        1.41707583       1.75779569      -0.28521032
H        0.73811327       1.16769479       1.39374463
H       -1.66659546      -0.59214039       0.82647682
H       -1.97937849       0.66540373      -0.42961398
H       -1.75290024      -1.01482348      -0.92124467
H        0.51860787      -1.49816095       1.04469000
H        1.96303049      -0.75895756       0.10881255
H        0.81574686      -1.92392725      -0.79486884
14
Properties=species:S:1:pos:R:3 energy=-4305.170793189098 smiles=CCCC name=tbu config_type=start_20 pbc="F F F"
C       -0.00119465       0.08290311      -0.46021842
C        0.50510700       1.34670280       0.29929656
C       -1.49806475      -0.25377235      -0.21333365
C        0.91676038      -1.09679856      -0.03462965
H        0.09857674       0.23304483      -1.58261688
H        0.09115099       2.33361316      -0.11041801
H        1.69609496       1.55356040       0.41528023
H        0.14839102       1.25237550       1.37837843
H       -1.71748327      -0.17443884       0.87595731
H       -2.22777694       0.38505530      -0.76935809
H       -1.69579743      -1.35555826      -0.55302524
H        0.95794822      -1.12198122       1.03277010
H        1.95213643      -0.81203443      -0.31507124
H        0.59889485      -2.11904621      -0.43408658
14
Properties=species:S:1:pos:R:3 energy=-4305.170793189098 smiles=CCCC name=tbu config_type=start_21 pbc="F F F"
C        0.03595565       0.04308364      -0.39597102
C        0.42104541       1.34761712       0.25997230
C       -1.44230861      -0.18705993      -0.20753303
C        0.92197147      -1.10769960      -0.03293923
H        0.16986873       0.25820494      -1.52374058
H       -0.03461944       2.21734511      -0.29679511
H        1.53162791       1.43055649       0.26113476
H        0.00488590       1.29252693       1.30905471
H       -1.64044524      -0.48524012       0.82381994
H       -2.14037749       0.66227430      -0.45628585
H       -1.73695177      -1.09093473      -0.77827997
H        1.01100053      -1.32531578       1.06320370
H        1.95520739      -0.87823990      -0.37534324
H        0.61457232      -2.10712719      -0.47549836
14
Properties=species:S:1:pos:R:3 energy=-4305.170793189098 smiles=CCCC name=tbu config_type=start_22 pbc="F F F"
C        0.01736196       0.10879085      -0.43448039
C        0.48661378       1.38438094       0.24783974
C       -1.42465905      -0.27321991      -0.18148008
C        0.86438808      -1.11604550      -0.01766711
H        0.19402610       0.25940080      -1.51293136
H       -0.16312640       2.26050762       0.01480319
H        1.51811787       1.57117560      -0.04653159
H        0.47358115       1.33095762       1.35943163
H       -1.70108262      -0.44045562       0.92053093
H       -2.17386646       0.45675018      -0.54225624
H       -1.65055191      -1.18193463      -0.83490768
H        0.35593749      -1.46296758       0.97924400
H        1.97563861      -0.90612844       0.10243440
H        0.82170637      -2.00856425      -0.77788696
14
Properties=species:S:1:pos:R:3 energy=-4305.170793189098 smiles=CCCC name=tbu config_type=start_23 pbc="F F F"
C        0.02288379       0.06283463      -0.46456901
C        0.46841782       1.36365897       0.25427332
C       -1.44896995      -0.23133353      -0.19279947
C        0.88586233      -1.11011398       0.00781296
H        0.15387075       0.25912254      -1.49362358
H       -0.39759065       2.16033968       0.09051109
H        1.47098073       1.73630184      -0.14986974
H        0.66833855       1.09294532       1.39753522
H       -1.66720379      -0.45865107       0.86872543
H       -2.01739782       0.62893835      -0.57793183
H       -1.78984791      -1.03221860      -0.86089978
H        0.57099147      -1.50152928       1.10258834
H        2.00185911      -0.74851017       0.03181760
H        0.84080052      -2.03330016      -0.63367209
14
Properties=species:S:1:pos:R:3 energy=-4305.170793189098 smiles=CCCC name=tbu config_type=start_24 pbc="F F F"
C        0.04757956       0.08116361      -0.42357837
C        0.38926978       1.40600938       0.26999300
C       -1.39868510      -0.21702916      -0.18984254
C        0.93051860      -1.18738937      -0.03493088
H        0.10654895       0.24398760      -1.55876677
H       -0.09994001       2.26110930      -0.38982296
H        1.46322316       1.45893394       0.29189785
H        0.02483454       1.55357118       1.38051713
H       -1.59101616      -0.54965581       0.84199064
H       -2.06595318       0.66597301      -0.35432995
H       -1.88824905      -0.96751044      -0.88839697
H        0.86592393      -1.39190655       1.08011378
H        2.04742611      -1.07105625      -0.29799404
H        0.49053670      -2.07190760      -0.53160147
