14
Properties=species:S:1:pos:R:3 energy=-4305.170793189098 smiles=CCCC name=tbu config_type=start_0 pbc="F F F"
C        0.03424451       0.07505505      -0.44090704
C        0.31272241       1.40873096       0.27879272
C       -1.42671105      -0.37277312      -0.23893570
C        1.01941145      -1.01967422       0.00994562
H        0.18914678       0.23906199      -1.52596825
H       -0.37240282       2.21013085      -0.06866178
H        1.35488245       1.75315573       0.10624980
H        0.17265373       1.30099760       1.37195041
H       -1.63832896      -0.54592888       0.83402830
H       -2.14218350       0.39560028      -0.60012637
H       -1.64105323      -1.31891819      -0.77927293
H        0.90113455      -1.22944258       1.09097233
H        2.07435535      -0.71431969      -0.16049821
H        0.84777926      -1.97120725      -0.53759125
14
Properties=species:S:1:pos:R:3 energy=-4305.170793189098 smiles=CCCC name=tbu config_type=start_1 pbc="F F F"
C        0.02714749       0.06425095      -0.44260096
C        0.59097759       1.31025704       0.26818728
C       -1.48357095      -0.09039488      -0.17922830
C        0.79787655      -1.20651378      -0.03828762
H        0.16564522       0.20731801      -1.53294375
H        0.05830282       2.23140915      -0.04680022
H        1.67098355       1.44893627       0.05020820
H        0.47842627       1.21936840       1.36650959
H       -1.67958504      -0.23907312       0.90026170
H       -2.04736650       0.81105972      -0.50037363
H       -1.90249277      -0.96604381      -0.71995707
H        0.69843345      -1.39382142       1.04860367
H        1.88213665      -1.11510631      -0.26579579
H        0.41284674      -2.10246275      -0.56968475
14
Properties=species:S:1:pos:R:3 energy=-4305.170793189098 smiles=CCCC name=tbu config_type=start_2 pbc="F F F"
C        0.08462865       0.08368274      -0.42703709
C        0.42445349       1.32560526       0.42099471
C       -1.44687441      -0.19026360      -0.44876194
C        0.86373366      -1.14359063       0.07921491
H        0.40717981       0.28880852      -1.48370780
H       -0.10673776       2.22010049       0.03442901
H        1.52308703       1.54710406       0.40893127
H        0.11880290       1.17685272       1.49017148
H       -1.82874652      -0.39424204       0.58830320
H       -2.00986328       0.67633513      -0.85530326
H       -1.70105371      -1.06920623      -1.08064037
H        0.57363038      -1.39906848       1.13453725
H        1.97090891      -0.95822297       0.06581313
H        0.65149077      -2.03146513      -0.55644102
14
Properties=species:S:1:pos:R:3 energy=-4305.170793189098 smiles=CCCC name=tbu config_type=start_3 pbc="F F F"
C       -0.02323665       0.05562326      -0.45647091
C        0.47924651       1.39338274       0.12598529
C       -1.46340759      -0.27290440       0.03059794
C        0.95355434      -1.08259737      -0.10755691
H       -0.05238781       0.15757148      -1.57520420
H       -0.20736224       2.22143951      -0.14989101
H        1.50277897       1.65498794      -0.25247327
H        0.53227710       1.34351328       1.24828852
H       -1.48916748      -0.39075996       1.14598680
H       -2.17968672       0.53032487      -0.24519674
H       -1.84249229      -1.21575577      -0.41858963
H        1.02593762      -1.22419552       1.00503875
H        1.98558309      -0.87120303      -0.49210713
H        0.60913523      -2.04220487      -0.55083498
14
Properties=species:S:1:pos:R:3 energy=-4305.170793189098 smiles=CCCC name=tbu config_type=start_4 pbc="F F F"
C       -0.61492764       0.83968772      -0.95344607
C       -0.19253880       2.14024778      -0.25803440
C       -2.10529134       0.55303750      -0.73067522
C        0.25067172      -0.34082945      -0.49454930
H       -0.45598989       0.97199298      -2.04249302
H       -0.79150079       2.99963964      -0.61220341
H        0.87238899       2.37052824      -0.44594480
H       -0.33182175       2.06233470       0.83817102
H       -2.32181535       0.41509678       0.34651721
H       -2.73577002       1.38513670      -1.09557297
H       -2.42213506      -0.36657724      -1.25619847
H        0.12979066      -0.51842746       0.59194419
H        1.32362741      -0.15338325      -0.68666061
H       -0.02844803      -1.27278176      -1.01949585
14
Properties=species:S:1:pos:R:3 energy=-4305.170793189098 smiles=CCCC name=tbu config_type=start_5 pbc="F F F"
C        0.67631964      -0.70038172       0.06993807
C        1.09623880       0.57874022       0.80501440
C       -0.80499066      -1.01620550       0.31251122
C        1.56661628      -1.88535855       0.46620730
H        0.81078189      -0.52561298      -1.01641898
H        0.47740079       1.44190036       0.49674141
H        2.15347701       0.83156376       0.60240280
H        0.98290175       0.45803130       1.90028898
H       -0.99609865      -1.20009878       1.38777279
H       -1.45377998      -0.17847670      -0.00492703
H       -1.12141094      -1.91838476      -0.24303153
H        1.46977734      -2.10483654       1.54763181
H        2.63286459      -1.67604275       0.26036661
H        1.28907403      -2.80088824      -0.08778015
14
Properties=species:S:1:pos:R:3 energy=-4305.170793189098 smiles=CCCC name=tbu config_type=start_6 pbc="F F F"
C       -0.16719244      -0.90950834      -1.67922361
C        0.23899610       0.38164552      -0.95764543
C       -1.65151563      -1.22470592      -1.45491018
C        0.71905248      -2.08590765      -1.25112564
H       -0.01646179      -0.75112526      -2.76570027
H       -0.37547267       1.23885616      -1.28922421
H        1.29905124       0.63288603      -1.14655424
H        0.10791124       0.27782535       0.13706516
H       -1.85914856      -1.39094792      -0.38017488
H       -2.29680243      -0.39424519      -1.79632491
H       -1.95759606      -2.13657343      -1.99996699
H        0.60614522      -2.28914365      -0.16843050
H        1.78794300      -1.87727264      -1.44366314
H        0.45179026      -3.01027189      -1.79530500
14
Properties=species:S:1:pos:R:3 energy=-4305.170793189098 smiles=CCCC name=tbu config_type=start_7 pbc="F F F"
C        0.22858444       1.04881434       0.79571561
C        0.66470390       2.33734248       1.50462543
C       -1.25876637       0.76153792       1.03674618
C        1.09823552      -0.14028035       1.22278364
H        0.37125379       1.19750526      -0.29321173
H        0.06137267       3.20268384       1.17376221
H        1.72681476       2.56920597       1.30301224
H        0.54316876       2.24254065       2.60139484
H       -1.45876544       0.60594592       2.11446488
H       -1.89274757       1.60090519       0.69582491
H       -1.58594994      -0.14838857       0.50073699
H        0.99342278      -0.33412035       2.30800650
H        2.16854900       0.04784664       1.01736914
H        0.80883574      -1.06339811       0.68802900
14
Properties=species:S:1:pos:R:3 energy=-4305.170793189098 smiles=CCCC name=tbu config_type=start_8 pbc="F F F"
C       -0.72211757      -0.28754221      -0.04214258
C       -0.29453191       1.01069882       0.65434874
C       -2.19796026      -0.60380379       0.23459155
C        0.18069064      -1.45857388       0.36701533
H       -0.60758811      -0.13821511      -1.13478272
H       -0.92219040       1.86370840       0.33585582
H        0.75853612       1.26280258       0.42778475
H       -0.38870751       0.91549790       1.75438975
H       -2.36908379      -0.76267612       1.31715895
H       -2.85634301       0.22296110      -0.09153202
H       -2.52011824      -1.52012572      -0.29340681
H        0.10469587      -1.65210403       1.45521525
H        1.24245504      -1.25032787       0.13644233
H       -0.10329082      -2.38824089      -0.15931493
14
Properties=species:S:1:pos:R:3 energy=-4305.170793189098 smiles=CCCC name=tbu config_type=start_9 pbc="F F F"
C        0.78350957       0.42684821      -0.84136542
C        1.19823191       1.70828918      -0.10736874
C       -0.71232174       0.14063579      -0.65275555
C        1.63659736      -0.76761412      -0.39535733
H        0.96238011       0.58459511      -1.92412928
H        0.60809040       2.57783160      -0.45131782
H        2.26732988       1.93928942      -0.27132675
H        1.03978751       1.60486810       0.98407025
H       -0.94883021      -0.02232588       0.41713105
H       -1.33320699       0.98369890      -1.00896798
H       -1.02342776      -0.76483628      -1.20582319
H        1.49487213      -0.97115997       0.68436075
H        2.71403696      -0.57909813      -0.56273633
H        1.36391682      -1.68542911      -0.94796107
14
Properties=species:S:1:pos:R:3 energy=-4305.170793189098 smiles=CCCC name=tbu config_type=start_10 pbc="F F F"
C        0.01338001       0.12511896      -0.43834565
C        0.44029848       1.31927333       0.44430335
C       -1.45641729      -0.23898156      -0.18508082
C        0.93180816      -1.10296859      -0.21826345
H        0.11121030       0.43655632      -1.51039523
H       -0.20343526       2.21471049       0.26487447
H        1.48714077       1.61169044       0.23340597
H        0.36793172       1.06113902       1.53140366
H       -1.60907294      -0.56266770       0.87708645
H       -2.12658644       0.63548508      -0.37428073
H       -1.77973249      -1.07669729      -0.84658234
H        0.87034662      -1.45740176       0.84251963
H        1.98938294      -0.85555936      -0.43181177
H        0.64883857      -1.95543783      -0.87764653
14
Properties=species:S:1:pos:R:3 energy=-4305.170793189098 smiles=CCCC name=tbu config_type=start_11 pbc="F F F"
C        0.04801199       0.01418704      -0.44516235
C        0.46340152       1.39971467       0.10267665
C       -1.45386471      -0.22418644      -0.23308318
C        0.88547984      -1.12321941       0.18992145
H        0.24358170       0.00982368      -1.54851677
H       -0.11066474       2.22682951      -0.38033647
H        1.53872523       1.59040156      -0.07694797
H        0.28314828       1.45922698       1.20705634
H       -1.70884106      -0.22233430       0.85720355
H       -2.06296356       0.57117492      -0.72621927
H       -1.76381351      -1.20826471      -0.65264766
H        0.72922138      -1.16586224       1.29705637
H        1.96710906      -0.97386664       0.00551777
H        0.61178743      -2.11823217      -0.22962947
14
Properties=species:S:1:pos:R:3 energy=-4305.170793189098 smiles=CCCC name=tbu config_type=start_12 pbc="F F F"
C        0.03053479       0.06960085      -0.44175086
C        0.45564628       1.35759428       0.27428194
C       -1.45612294      -0.22730527      -0.20823141
C        0.90597302      -1.11549335      -0.01581950
H        0.17680656       0.22323453      -1.52956281
H       -0.21850098       2.20233732       0.01884250
H        1.49027225       1.65043651      -0.00365437
H        0.42554059       1.22129786       1.37817824
H       -1.68113779      -0.27549940       0.88035996
H       -2.09950620       0.56178304      -0.65281874
H       -1.74927133      -1.19986524      -0.65742811
H        0.72166193      -1.37787278       1.04904410
H        1.98575991      -0.87945652      -0.12385149
H        0.69007969      -2.01553140      -0.62851937
14
Properties=species:S:1:pos:R:3 energy=-4305.170793189098 smiles=CCCC name=tbu config_type=start_13 pbc="F F F"
C        0.03085721       0.06970515      -0.44175714
C        0.44805372       1.36139372       0.27269806
C       -1.45415906      -0.23586273      -0.20993259
C        0.91131498      -1.11069465      -0.01252250
H        0.17798544       0.22314547      -1.52934919
H       -0.09559902       2.23920268      -0.13430450
H        1.53559375       1.55165549       0.16011237
H        0.22553941       1.29906814       1.36028176
H       -1.63677621      -0.50950260       0.85393004
H       -2.09004380       0.64487696      -0.44768126
H       -1.79427467      -1.08509676      -0.84180189
H        0.87790607      -1.24539122       1.09053190
H        1.97073209      -0.94996948      -0.30244251
H        0.57054631      -2.05813860      -0.47875663
14
Properties=species:S:1:pos:R:3 energy=-4305.170793189098 smiles=CCCC name=tbu config_type=start_14 pbc="F F F"
C        0.03036446       0.06965208      -0.44109358
C        0.44879867       1.36153833       0.27233561
C       -1.45372406      -0.23095253      -0.19524455
C        0.91101573      -1.11591405      -0.02716442
H        0.17182218       0.22472924      -1.52934689
H       -0.07459248       2.24501020      -0.15715955
H        1.54430278       1.53510967       0.18366899
H        0.19699143       1.31104759       1.35744010
H       -1.65507913      -0.33347151       0.88987337
H       -2.10053596       0.57947739      -0.58211809
H       -1.76365688      -1.17405461      -0.68469430
H        0.75797489      -1.37043727       1.04220367
H        1.98566906      -0.88678806      -0.16888356
H        0.67416230      -2.01855672      -0.62466032
14
Properties=species:S:1:pos:R:3 energy=-4305.170793189098 smiles=CCCC name=tbu config_type=start_15 pbc="F F F"
C        0.03102754       0.06965392      -0.44241442
C        0.45490133       1.35744967       0.27464439
C       -1.45655794      -0.23221547      -0.22291945
C        0.90627227      -1.11027395      -0.00117758
H        0.18296982       0.22165076      -1.52956511
H       -0.23950752       2.19652980       0.04169755
H        1.48156322       1.66698233      -0.02721099
H        0.45408857       1.20931841       1.38101990
H       -1.66283487      -0.45153049       0.84441663
H       -2.08901404       0.62718261      -0.51838191
H       -1.77988912      -1.11090739      -0.81453570
H        0.84159311      -1.25282673       1.09737233
H        1.97082294      -0.94263794      -0.25741044
H        0.58646370      -2.05511328      -0.48261568
14
Properties=species:S:1:pos:R:3 energy=-4305.170793189098 smiles=CCCC name=tbu config_type=start_16 pbc="F F F"
C        0.03062896       0.06942474      -0.44106085
C        0.45585451       1.36563268       0.26000645
C       -1.45372061      -0.23532158      -0.20316272
C        0.90336664      -1.11484582      -0.00695903
H        0.17599625       0.21781099      -1.52974910
H       -0.16208466       2.22076672      -0.07075913
H        1.51288494       1.60976382       0.04534177
H        0.34738710       1.27761954       1.35902642
H       -1.63153685      -0.50536757       0.86208833
H       -2.09170505       0.64343404      -0.44152569
H       -1.79559050      -1.08719556      -0.82975044
H        0.70202478      -1.38043264       1.05550521
H        1.98584178      -0.87638332      -0.09783309
H        0.69750175      -2.01438459      -0.62604343
14
Properties=species:S:1:pos:R:3 energy=-4305.170793189098 smiles=CCCC name=tbu config_type=start_17 pbc="F F F"
C        0.03076304       0.06988126      -0.44244715
C        0.44784549       1.35335532       0.28697355
C       -1.45656139      -0.22784642      -0.21500128
C        0.91392136      -1.11134218      -0.02138297
H        0.17879575       0.22856901      -1.52916290
H       -0.15201534       2.22077328      -0.04470287
H        1.51298106       1.59232818       0.11111623
H        0.30369290       1.24274646       1.37943358
H       -1.68637715      -0.27963443       0.87220167
H       -2.09784495       0.56322596      -0.65897431
H       -1.74795550      -1.19776644      -0.66947956
H        0.89754322      -1.24283136       1.08407079
H        1.97065022      -0.95304268      -0.32846091
H        0.56312425      -2.05928541      -0.48123257
14
Properties=species:S:1:pos:R:3 energy=-4305.170793189098 smiles=CCCC name=tbu config_type=start_18 pbc="F F F"
C        0.02254000       0.08789203      -0.44012769
C        0.47812070       1.36836795       0.27633874
C       -1.45524371      -0.26196845      -0.21413361
C        0.88699813      -1.10164560      -0.01284859
H        0.16774313       0.24480346      -1.52756961
H       -0.10078350       2.25261113      -0.04965479
H        1.54660490       1.56957904       0.07031711
H        0.36058180       1.27333029       1.37351042
H       -1.66021134      -0.43264129       0.86039498
H       -2.13609722       0.53697176      -0.56482149
H       -1.71827400      -1.19192730      -0.75418800
H        0.77053792      -1.29491121       1.07140439
H        1.96058609      -0.92222607      -0.20840786
H        0.59427960      -2.02268599      -0.54931806
14
Properties=species:S:1:pos:R:3 energy=-4305.170793189098 smiles=CCCC name=tbu config_type=start_19 pbc="F F F"
C        0.03885200       0.05141397      -0.44338031
C        0.42557930       1.35062005       0.27064126
C       -1.45503829      -0.20119955      -0.20403039
C        0.93028987      -1.12454240      -0.01549341
H        0.18704887       0.20157654      -1.53134239
H       -0.21331650       2.18892887      -0.06580721
H        1.47926110       1.63251296       0.08614089
H        0.29049820       1.24703571       1.36494958
H       -1.65770266      -0.35236071       0.87389502
H       -2.05345278       0.66968824      -0.53567851
H       -1.82527200      -1.09303470      -0.74504200
H        0.82903008      -1.32835279       1.06817161
H        1.99590591      -0.90719993      -0.21788614
H        0.66634640      -2.05098401      -0.55795794
14
Properties=species:S:1:pos:R:3 energy=-4305.170793189098 smiles=CCCC name=tbu config_type=start_20 pbc="F F F"
C        0.04871361       0.07730827      -0.43714870
C        0.43663089       1.38329540       0.27274385
C       -1.43213096      -0.23543667      -0.20420341
C        0.89084332      -1.13727939      -0.02081836
H        0.19909086       0.23223587      -1.52418886
H       -0.20395112       2.21711786      -0.07290227
H        1.48913786       1.66381194       0.07888343
H        0.30685059       1.29391282       1.36887322
H       -1.62855309      -0.39692580       0.87342444
H       -2.08502790       0.58963435      -0.54397831
H       -1.73862440      -1.15247366      -0.74005002
H        0.77769915      -1.34531716       1.06091159
H        1.96909222      -0.99219038      -0.22582094
H        0.56050599      -2.04020751      -0.56950423
14
Properties=species:S:1:pos:R:3 energy=-4305.170793189098 smiles=CCCC name=tbu config_type=start_21 pbc="F F F"
C        0.01267839       0.06199773      -0.44635930
C        0.46706911       1.33569260       0.27423615
C       -1.47815104      -0.22773133      -0.21396059
C        0.92644468      -1.08890861      -0.00752364
H        0.15570114       0.21414413      -1.53472314
H       -0.11014888       2.22442214      -0.04255973
H        1.53672814       1.53828006       0.07757457
H        0.34422941       1.22645318       1.36958678
H       -1.68936091      -0.38807620       0.86086556
H       -2.10452210       0.61702565      -0.55652169
H       -1.80492160      -1.13248834      -0.75917998
H        0.82186885      -1.27794684       1.07866441
H        1.98739978      -0.83723562      -0.20047306
H        0.70012001      -2.03346249      -0.53777177
14
Properties=species:S:1:pos:R:3 energy=-4305.170793189098 smiles=CCCC name=tbu config_type=start_22 pbc="F F F"
C        0.02562643       0.06458725      -0.40845191
C        0.45844164       1.37518196       0.27076505
C       -1.47131538      -0.23320951      -0.21779307
C        0.92094461      -1.12446444      -0.02024754
H        0.17236396       0.21832560      -1.49723122
H       -0.15187662       2.22489296      -0.08844227
H        1.51673690       1.60523047       0.04465058
H        0.35135982       1.32449922       1.37334643
H       -1.72635593      -0.40181710       0.84754378
H       -2.09018752       0.60764342      -0.58376665
H       -1.76894361      -1.13703821      -0.78205542
H        0.84817481      -1.36165381       1.06015662
H        1.98218205      -0.90914947      -0.24766312
H        0.63622374      -2.03228719      -0.58416255
14
Properties=species:S:1:pos:R:3 energy=-4305.170793189098 smiles=CCCC name=tbu config_type=start_23 pbc="F F F"
C        0.03576557       0.07471875      -0.47505609
C        0.44525836       1.34380604       0.27621495
C       -1.43896662      -0.22995849      -0.20037093
C        0.89634339      -1.10172356      -0.00809446
H        0.18242804       0.22805440      -1.56168078
H       -0.16222338       2.21664704      -0.02701973
H        1.50912910       1.59686153       0.11180742
H        0.29972018       1.19586678       1.36511357
H       -1.59155807      -0.38318490       0.88674622
H       -2.09936248       0.59901658      -0.51673335
H       -1.77460239      -1.14792379      -0.71717458
H        0.75139319      -1.26161019       1.07941938
H        1.97430995      -0.92027653      -0.17863088
H        0.62440226      -2.04138281      -0.52311345
14
Properties=species:S:1:pos:R:3 energy=-4305.170793189098 smiles=CCCC name=tbu config_type=start_24 pbc="F F F"
C        0.03292209       0.07207182      -0.45835148
C        0.45828640       1.37840685       0.27998440
C       -1.47588136      -0.23524426      -0.20955696
C        0.92177246      -1.12956680      -0.01176088
H        0.17994465       0.22551305      -1.54537373
H       -0.15022239       2.24615644      -0.03571842
H        1.52102686       1.62569321       0.10010564
H        0.32342466       1.25506130       1.37247777
H       -1.65441362      -0.39236921       0.87203123
H       -2.12667413       0.59672453      -0.53766676
H       -1.80264443      -1.15018517      -0.73753116
H        0.79612853      -1.30879402       1.07410129
H        1.99573477      -0.93938515      -0.19674274
H        0.64683100      -2.06234036      -0.53779566
14
Properties=species:S:1:pos:R:3 energy=-4305.170793189098 smiles=CCCC name=tbu config_type=start_25 pbc="F F F"
C        0.02846991       0.06723418      -0.42515652
C        0.44541360       1.34058115       0.26699560
C       -1.43440064      -0.22792374      -0.20860704
C        0.89551554      -1.09662120      -0.01658112
H        0.17484735       0.22086695      -1.51353827
H       -0.16387761       2.19538356      -0.07974358
H        1.50483914       1.57639879       0.05635236
H        0.32765534       1.26530470       1.36598223
H       -1.66350038      -0.39263279       0.86225877
H       -2.06287587       0.60993547      -0.56283324
H       -1.74090157      -1.13477683      -0.76169884
H        0.80343947      -1.31446998       1.06547471
H        1.96075723      -0.89004085      -0.22955126
H        0.61379500      -2.01132964      -0.56948034
14
Properties=species:S:1:pos:R:3 energy=-4305.170793189098 smiles=CCCC name=tbu config_type=start_26 pbc="F F F"
C        0.03862621       0.05720507      -0.44245912
C        0.45913473       1.36179380       0.28213724
C       -1.45796198      -0.24045275      -0.20589280
C        0.90328068      -1.10492072      -0.02592633
H        0.16222253       0.24620607      -1.52827234
H       -0.17182753       2.19366000      -0.08639518
H        1.51286803       1.62911825       0.07783211
H        0.32624397       1.29976880       1.38017307
H       -1.68675589      -0.38329457       0.86800498
H       -2.05618158       0.62049549      -0.56219331
H       -1.80501127      -1.13771174      -0.75180449
H        0.76060486      -1.25955249       1.06330702
H        1.98084962      -0.91772311      -0.19202611
H        0.63487179      -2.05140272      -0.53063140
14
Properties=species:S:1:pos:R:3 energy=-4305.170793189098 smiles=CCCC name=tbu config_type=start_27 pbc="F F F"
C        0.02276579       0.08210093      -0.44104888
C        0.44456527       1.35719420       0.26484276
C       -1.45232002      -0.22271525      -0.21227120
C        0.91400732      -1.12126728      -0.00241567
H        0.19256947       0.20017393      -1.53063966
H       -0.14227247       2.24788000      -0.02906682
H        1.51299797       1.57297375       0.07862589
H        0.32483603       1.22059720       1.35828693
H       -1.63115811      -0.40170743       0.86628502
H       -2.13336842       0.58616451      -0.53830669
H       -1.73853473      -1.14725026      -0.74742551
H        0.83896314      -1.36371151       1.07626898
H        1.97564238      -0.91170289      -0.23426789
H        0.62575421      -2.02226728      -0.57664460
14
Properties=species:S:1:pos:R:3 energy=-4305.170793189098 smiles=CCCC name=tbu config_type=start_28 pbc="F F F"
C        0.01829843       0.06161881      -0.44460865
C        0.44842321       1.36745827       0.28379035
C       -1.44400764      -0.23184992      -0.21880020
C        0.90257659      -1.11961578      -0.01433683
H        0.19904064       0.23682162      -1.52459034
H       -0.14213420       2.23535518      -0.06415483
H        1.51034672       1.57602280       0.04985365
H        0.35002950       1.30273993       1.38560354
H       -1.60139317      -0.37581459       0.86917103
H       -2.09018097       0.60888732      -0.53294168
H       -1.79628196      -1.14783923      -0.72872884
H        0.81674351      -1.30825181       1.07358557
H        1.96188118      -0.87564183      -0.22410364
H        0.66179829      -2.06021160      -0.54407550
14
Properties=species:S:1:pos:R:3 energy=-4305.170793189098 smiles=CCCC name=tbu config_type=start_29 pbc="F F F"
C        0.04309357       0.07768719      -0.43889935
C        0.45527679       1.35152973       0.26318965
C       -1.46627436      -0.23131808      -0.19936380
C        0.91471141      -1.10657222      -0.01400517
H        0.15575136       0.20955838      -1.53432166
H       -0.17196580       2.20618482      -0.05130717
H        1.51551928       1.62606920       0.10660435
H        0.30105050       1.21762607       1.35285646
H       -1.71652083      -0.40918741       0.86511897
H       -2.09936903       0.59777268      -0.56755832
H       -1.74726404      -1.13712277      -0.77050116
H        0.78282449      -1.31501219       1.06599043
H        1.99461082      -0.95378417      -0.20219036
H        0.59882771      -2.01345840      -0.56320050
14
Properties=species:S:1:pos:R:3 energy=-4305.170793189098 smiles=CCCC name=tbu config_type=start_30 pbc="F F F"
C        0.02818561       0.06977958      -0.44211729
C        0.44171415       1.36418110       0.27266843
C       -1.45086528      -0.24084560      -0.20915241
C        0.91697283      -1.10860578      -0.01292036
H        0.16745168       0.22367545      -1.53079944
H       -0.12652578       2.26300215      -0.03340801
H        1.51258504       1.55011310       0.05959081
H        0.34477405       1.25100624       1.37071944
H       -1.66904758      -0.37388885       0.86828013
H       -2.04387050       0.62803235      -0.55663979
H       -1.81606842      -1.13533161      -0.74822265
H        0.78151026      -1.32032699       1.06613177
H        1.99762710      -0.96298580      -0.20248409
H        0.59373050      -2.01339984      -0.56255874
14
Properties=species:S:1:pos:R:3 energy=-4305.170793189098 smiles=CCCC name=tbu config_type=start_31 pbc="F F F"
C        0.03320639       0.06952642      -0.44139071
C        0.46198585       1.35480690       0.27431157
C       -1.45941672      -0.22232240      -0.20901159
C        0.90031517      -1.11758222      -0.01542164
H        0.18734032       0.22270455      -1.52811256
H       -0.18757422       2.17853785      -0.08205399
H        1.51328096       1.65197890       0.09686719
H        0.30630595       1.26935976       1.36774056
H       -1.64886642      -0.41111315       0.86600987
H       -2.14567950       0.57862765      -0.54386021
H       -1.72747758      -1.14963039      -0.75100735
H        0.81805774      -1.30293701       1.07344423
H        1.95886490      -0.86644020      -0.22380991
H        0.66689550      -2.06027016      -0.54471726
14
Properties=species:S:1:pos:R:3 energy=-4305.170793189098 smiles=CCCC name=tbu config_type=start_32 pbc="F F F"
C        0.04421723       0.06784876      -0.44013602
C        0.45454843       1.35445662       0.27431079
C       -1.46837967      -0.23700555      -0.21555876
C        0.90565513      -1.10108016      -0.01018152
H        0.23364980       0.21736085      -1.52260945
H       -0.16436778       2.20280641      -0.07229728
H        1.51210122       1.60852117       0.07418386
H        0.32777086       1.27101306       1.37118461
H       -1.62076184      -0.38073396       0.87374053
H       -2.11461343       0.60519428      -0.52627650
H       -1.82068262      -1.15382531      -0.72406509
H        0.81305722      -1.33819586       1.06767174
H        1.97438856      -0.91909618      -0.23053699
H        0.60120579      -1.99971501      -0.57985914
14
Properties=species:S:1:pos:R:3 energy=-4305.170793189098 smiles=CCCC name=tbu config_type=start_33 pbc="F F F"
C        0.01717477       0.07145724      -0.44337198
C        0.44915157       1.36453138       0.27266921
C       -1.44190233      -0.22616245      -0.20260524
C        0.91163287      -1.12510784      -0.01816048
H        0.12114220       0.22901915      -1.53630255
H       -0.14973222       2.23873359      -0.04316472
H        1.51376478       1.59357083       0.08227414
H        0.32330914       1.24935294       1.36727539
H       -1.69715216      -0.40426804       0.86054947
H       -2.07493657       0.60146572      -0.57422350
H       -1.72286338      -1.13113669      -0.77516491
H        0.78651078      -1.28506814       1.07190426
H        1.98210344      -0.91032982      -0.19575701
H        0.65942021      -2.07395499      -0.52741686
14
Properties=species:S:1:pos:R:3 energy=-4305.170793189098 smiles=CCCC name=tbu config_type=start_34 pbc="F F F"
C        0.03175782       0.08323863      -0.43962813
C        0.44469858       1.34557569       0.27454196
C       -1.45998292      -0.22617398      -0.21024858
C        0.91937635      -1.11822194      -0.01617731
H        0.18306519       0.28050048      -1.52053200