14
Properties=species:S:1:pos:R:3 energy=-4305.117114564319 name=nbu_bent smiles=CCCC config_type=start_0 pbc="F F F"
C       -0.61591802       0.29339045      -0.52794096
C       -1.10353413      -1.25489003      -0.66222309
C        1.46050946      -0.15424279       1.36530120
C        0.11467703       0.57188778      -0.91898896
H       -0.47840587       1.57447349      -0.13108786
H       -2.99290372       0.12317940       1.40203942
H       -3.58100364       0.86569190      -0.71629620
H       -0.90792580       0.32087688      -3.00956234
H       -1.05273176      -0.97264340      -1.75194644
H        0.31694438      -2.47594556       0.95645498
H        0.65899808      -1.86237081      -0.74646443
H        2.77708984      -0.44643019       1.73796225
H        0.56858554       0.43030345       0.45080337
H        0.65855048       2.41134394      -0.25585986
14
Properties=species:S:1:pos:R:3 energy=-4305.117114564319 name=nbu_bent smiles=CCCC config_type=start_1 pbc="F F F"
C       -2.19979690       1.20899107       2.10471491
C        0.34838366      -2.39993190      -0.83690797
C       -0.54233522      -0.97792387      -0.93754791
C        2.70496160       0.56346167       0.43698009
H       -0.56924733       3.02552973       1.78083089
H       -1.77435687      -0.08938982       0.74451039
H       -2.79971690       0.88211545      -1.93044316
H       -1.81296626       0.54594760      -2.49021838
H       -1.20034079      -1.09453169      -0.57553264
H        0.39543052      -2.26866383       3.23725608
H        0.12046871       0.25196780       0.03613222
H        3.18683958       1.35164416       1.58607821
H        2.04602415       0.34197916       0.68881462
H        1.04992137       0.17544109      -2.31575193
14
Properties=species:S:1:pos:R:3 energy=-4305.117114564319 name=nbu_bent smiles=CCCC config_type=start_2 pbc="F F F"
C       -2.75823420      -0.20298813       1.13368499
C       -1.16797818       1.20502997      -2.08214416
C       -0.42581035      -1.29485480      -1.17964248
C        0.57031137      -0.47902553      -0.02043160
H       -1.98490518      -0.17620181       0.38386241
H       -3.08859942       0.94785258       0.46381296
H       -2.39014920       0.32344208      -0.51905639
H        0.07018117       1.75315395      -0.78233484
H       -2.48064141      -2.77219691       0.12380939
H        0.29248470       0.22391374       2.04727966
H        2.40851023      -2.64861612      -0.46451611
H        1.47830806       2.34903472       3.10448972
H        3.24046489       0.52385995       0.81711119
H        3.67720787       0.08794359      -0.71996920
14
Properties=species:S:1:pos:R:3 energy=-4305.117114564319 name=nbu_bent smiles=CCCC config_type=start_3 pbc="F F F"
C       -0.06912076       0.40387398      -1.30540469
C       -0.76125453       0.34651702      -2.11973253
C       -0.96173895      -0.40113113      -0.66940692
C        3.21259762       0.77108101       2.09307963
H       -0.18886764       2.47010674       0.05389253
H       -2.93168603       1.87769332       2.45834938
H       -1.95687936      -0.32627270       0.21122952
H        0.02161801       0.09548490      -0.73006685
H       -0.55678382      -2.95527375       0.47125197
H        0.02701827      -0.14602901       2.11193756
H        0.54881061      -1.35582121      -0.24003313
H        3.47593348       1.33926326       1.25748075
H        1.07543046       2.12113046       1.17452368
H        2.33760059       0.87476006       1.06142599
14
Properties=species:S:1:pos:R:3 energy=-4305.117114564319 name=nbu_bent smiles=CCCC config_type=start_4 pbc="F F F"
C       -2.12393594       0.41885465       0.87028718
C        0.38457912       0.56308572      -0.53650676
C       -0.60021553      -1.91256986      -0.41545394
C        2.58006067       0.02675459       0.80974768
H       -1.50549032       2.51180086      -0.77231403
H       -0.79458792      -0.35276314       0.50819349
H       -2.01038247      -0.27547550      -0.20279052
H        2.39446065       1.19312987      -1.49941103
H        0.04599659      -2.24243161      -0.48208550
H        0.91619882      -1.18999547       1.76023778
H        0.91463549      -2.23449423      -0.46547245
H        3.15561762      -0.62174535       1.60497288
H        1.03345413       0.40898515      -0.56653505
H        2.41233883       1.56705530       0.55000181
14
Properties=species:S:1:pos:R:3 energy=-4305.117114564319 name=nbu_bent smiles=CCCC config_type=start_5 pbc="F F F"
C       -1.63251524       0.53486902       0.34447528
C       -0.10646979      -1.83645858      -2.28331728
C        1.27209288       0.26658160       0.56163247
C        2.20575071       1.72365516       1.52778282
H       -0.38252097       3.04707699       1.25361907
H       -1.62059649       0.01046526       1.88716461
H       -2.34103446       0.16085124      -0.95223007
H        0.74818419       1.72041814       0.16114975
H       -1.62686908      -2.07453820      -1.60554106
H        0.80122850      -2.38420534       1.93366128
H        0.66650373      -1.75107586      -1.27338791
H        4.52948908      -0.68588125       1.03484828
H        0.92067634       0.46774447       1.27303425
H        3.48278464       1.07644559       1.15775675
14
Properties=species:S:1:pos:R:3 energy=-4305.117114564319 name=nbu_bent smiles=CCCC config_type=start_6 pbc="F F F"
C       -2.44748915       0.52586540      -1.04012289
C        0.26226779      -0.49969838       0.08221114
C        0.15387375      -0.91325697       0.69440947
C        2.84529870       1.45956551       0.05756582
H       -0.27550315       0.35540305       0.87541206
H       -2.88596080      -1.53267327       0.44878339
H       -1.06519772       0.15245965      -2.04480349
H       -0.07283828      -0.36003195      -2.40336926
H       -0.35842422      -1.93865564      -0.32733133
H        0.00625345      -3.13894201       1.14507574
H       -0.07388939       0.22335740      -0.62849900
H        5.02736632      -0.25604622       1.55248317
H        0.34293560      -0.94990556       2.51769967
H        1.43151470       1.19199393      -0.06520489
14
Properties=species:S:1:pos:R:3 energy=-4305.117114564319 name=nbu_bent smiles=CCCC config_type=start_7 pbc="F F F"
C       -2.57679031       0.45206148      -1.90632132
C        0.91562944      -0.86363857      -1.04272352
C       -0.40599155      -2.00017502       1.13517878
C        2.62798282       1.53564831       0.06021142
H       -1.21864081       2.48127540       0.14943113
H       -1.39619103      -1.03899143      -0.28228879
H       -3.06487519       0.68956642      -0.63695049
H       -0.45601435       2.22002415      -1.80537532
H       -1.47541874      -3.13682485      -1.50915816
H        1.11006793      -1.28314138       0.38500039
H        2.50094530      -0.01067053       0.42610283
H        1.95089069       0.42021161       1.62424866
H        0.61110000       1.76175705       0.22094545
H       -0.21223510       0.24106921      -0.75290849
14
Properties=species:S:1:pos:R:3 energy=-4305.117114564319 name=nbu_bent smiles=CCCC config_type=start_8 pbc="F F F"
C       -1.30054719       0.03993715      -0.09775881
C        0.53146068       0.73817398      -0.08959504
C       -0.17388697      -0.44457898       0.26095154
C        1.08755271       1.64865609      -0.27095309
H       -1.12870998       0.40445453       1.28443161
H       -1.48534358      -0.40631351       0.34180889
H       -2.25639146      -0.03380242      -0.49379648
H       -1.77864322      -1.22334854       0.57501575
H       -0.36468184      -2.30337244      -0.73471119
H        1.91111507       0.41597197       2.85540632
H        2.37970237      -1.35399792      -1.10886669
H        3.60350042       0.72863069       1.34075981
H        2.42659653       2.46859528       0.30438778
H        1.72695252      -0.97696021      -1.90595052
14
Properties=species:S:1:pos:R:3 energy=-4305.117114564319 name=nbu_bent smiles=CCCC config_type=start_9 pbc="F F F"
C       -1.67061708       1.37676431       0.32609307
C       -1.62107907       0.21161035      -1.80698827
C        1.49184404      -1.54549555       0.06109452
C        0.76757626      -0.74111989      -0.29330596
H       -1.26681266       1.77008923       1.02781162
H       -2.22098738       0.07821064       2.01291369
H       -4.61091948       1.97217782      -1.44032343
H        0.75323246      -1.02778781      -2.75058666
H       -1.44649404      -2.90366960       0.78064725
H        0.59839445      -0.42617930       1.20387127
H        1.69174607      -0.77841606       0.34834772
H        4.18745517       0.62191360       0.90298403
H        0.79544621       0.68422980       1.49931466
H        1.84044842       1.65933634      -0.33425597
14
Properties=species:S:1:pos:R:3 energy=-4305.117114564319 name=nbu_bent smiles=CCCC config_type=start_10 pbc="F F F"
C       -1.55532011      -0.37812223      -0.56446564
C       -0.68229871       1.41198314       1.06400191
C        0.21763736       0.33901819      -1.79010286
C        1.27285467       1.16582422      -0.22750734
H       -0.50803121       2.25335871      -0.05932446
H       -3.14841336      -0.02257756       1.15732927
H       -2.25764985       0.69704799      -1.12422626
H        2.33116851       0.41092646      -2.86051876
H       -1.68592874      -0.52598082      -0.47991854
H        0.69424425      -1.87807055       2.93957467
H        2.24739825      -1.03922316      -0.77969378
H        4.44168026       0.66828060       1.60466200
H        0.94798515       1.51051660       0.67716059
H        1.84639164       1.32385332      -0.79501608
14
Properties=species:S:1:pos:R:3 energy=-4305.117114564319 name=nbu_bent smiles=CCCC config_type=start_11 pbc="F F F"
C       -1.51999821      -0.70870917       1.65490298
C       -1.64796851      -1.42365751      -1.40922779
C        1.51035468      -0.45706774       0.80811312
C        2.57798611       0.05191739      -0.62665238
H       -0.83484159       1.98449587       1.41568471
H       -2.39053389      -1.40798952      -0.13022500
H       -3.78653976      -0.72990691      -0.80730825
H       -1.53753080      -0.50349057      -2.87726883
H       -0.57550280      -0.43269256      -1.99723012
H        0.75276795      -2.24480993       1.14701053
H        0.47699546      -0.40867695       1.29822243
H        2.95649238       0.69000285       1.04958953
H       -0.11804694       1.01352949       0.50732877
H        1.57079783       2.49958541      -0.05615751
14
Properties=species:S:1:pos:R:3 energy=-4305.117114564319 name=nbu_bent smiles=CCCC config_type=start_12 pbc="F F F"
C        0.39630103       0.86621580       1.16391624
C       -0.46768629       0.65721800       0.71455028
C        0.13526373      -1.58202390       0.31857443
C        1.65063298       0.60138256       0.89673881
H       -0.99062032       1.02412325      -0.81750739
H       -0.78143478      -0.91845303      -0.41660606
H       -1.63655352      -0.11958655      -0.54631682
H        1.60111871       0.00865019       0.04072034
H       -0.81413595      -1.46967726      -0.70039440
H       -0.54027274      -1.27664329       1.63284834
H        1.56965509      -2.62706808      -2.14520156
H        3.12371558       0.66317815       2.49448723
H        0.82209439       0.25750304      -0.53825627
H        3.59505310       1.18044493      -0.14331691
14
Properties=species:S:1:pos:R:3 energy=-4305.117114564319 name=nbu_bent smiles=CCCC config_type=start_13 pbc="F F F"
C       -0.19685189      -1.80261189       0.21469168
C       -0.93783733       0.43512641      -0.09598896
C        0.01470999      -0.88569571       2.03436111
C        1.18549080       1.67915216       1.46113637
H       -2.62975799       1.86708774       0.18763157
H       -4.37154908      -2.55269535      -0.14520613
H       -3.58195807       1.97364475      -0.98371955
H        0.04889821       0.80800611      -2.38410716
H       -1.62374764      -2.79875843      -1.02362070
H        0.67008798      -1.69072198       3.24278183
H        1.79386280      -3.21671526      -0.13778989
H        2.78352848      -0.15638448       1.23064386
H        0.01150540      -0.68939830       1.32840529
H        0.23457683       0.44420321      -0.38960514
14
Properties=species:S:1:pos:R:3 energy=-4305.117114564319 name=nbu_bent smiles=CCCC config_type=start_14 pbc="F F F"
C       -0.08956557       0.45005081      -1.75619689
C        0.00266836      -1.06639925       0.31383774
C       -0.09040219      -2.08942903       1.45021104
C        2.45758595       0.99176757       0.18590651
H       -2.31379660       2.90571717      -0.67003258
H       -1.90299396       0.56687682       1.44482759
H       -3.16187718       0.85742569      -2.08567838
H        0.31659566      -0.95231974      -1.69742624
H       -0.88150720      -2.37518235      -1.05318838
H        0.95882338      -1.60531852       1.66698482
H        0.55075802      -2.05768545      -0.66776872
H        4.41329198       0.29230370       1.77902472
H        1.89124153       2.03138106       1.79838933
H        2.04063784       1.44068870      -0.37703912
14
Properties=species:S:1:pos:R:3 energy=-4305.117114564319 name=nbu_bent smiles=CCCC config_type=start_15 pbc="F F F"
C       -3.44745578      -0.80272699       0.01339477
C        0.66228969       1.35211907      -0.25325773
C        1.61351704      -1.08316234      -2.11376281
C        0.07982436       0.04040704       0.01231995
H        0.16255198       1.28815769       1.11026212
H       -2.22408599       0.89170232       1.37532985
H       -3.14297482       0.77977659      -2.47736006
H        0.27171694       1.22027483      -1.38767816
H       -0.99441979      -2.00131550       0.17423798
H        1.00075632      -1.37650469       1.89205371
H        0.25030097      -1.99808568      -0.84976179
H        1.50448553       0.02733329       0.50858644
H        1.01437828       1.31884293      -0.28151602
H        2.50937719      -1.00839417      -1.21177302
14
Properties=species:S:1:pos:R:3 energy=-4305.117114564319 name=nbu_bent smiles=CCCC config_type=start_16 pbc="F F F"
C       -0.85501855       1.75685071       1.31740104
C        0.43137083      -0.16612113      -0.34803938
C        1.52068081      -0.77600902       0.82220899
C        1.58642920      -1.48055492      -0.15396800
H       -0.10901919       2.78038491       1.61083333
H       -0.96673927      -2.10685487       2.94459047
H       -2.91636673       0.03405406      -1.68679076
H       -2.15730332       2.13627969      -2.47921931
H       -3.05424014      -1.28680569      -0.59420821
H       -1.19838038      -2.53051393      -0.21657404
H        1.32860606      -0.91628274      -0.42569554
H        2.05820658       1.02678317       1.75368353
H        0.12853261       0.15660741       0.93073671
H        1.90912783       1.21158822       0.57287861
14
Properties=species:S:1:pos:R:3 energy=-4305.117114564319 name=nbu_bent smiles=CCCC config_type=start_17 pbc="F F F"
C       -3.21566862       0.67003438      -0.34490901
C       -0.99090148       0.46681532      -1.24855514
C        1.33529466      -1.74055715      -0.65504137
C        1.28120393       1.12049322       0.68539895
H       -1.27509095       2.15944457      -1.16078290
H       -1.28119259      -0.86724106       1.60122456
H       -4.04854390      -0.17163552      -1.38482368
H        1.81530015       0.86309565      -1.21934381
H       -1.45746012      -0.60016797       0.04759178
H       -0.16514535      -1.23984023       0.61298298
H        2.13526905      -1.01822475      -0.64843056
H        3.01400684       0.59889981      -0.02826239
H        1.06727932       1.31297470       0.39875149
H       -0.67593983       0.55265398      -0.26891405
14
Properties=species:S:1:pos:R:3 energy=-4305.117114564319 name=nbu_bent smiles=CCCC config_type=start_18 pbc="F F F"
C       -2.24649128       1.69761018       0.73074608
C       -0.65351908      -0.56833629      -1.37155388
C       -0.17141160      -1.29686523      -0.69819497
C        1.94260888       0.19415237      -0.53775854
H       -2.19405085       2.11469612      -0.55671135
H       -0.79275732      -1.24637217       1.04705694
H       -1.80152875      -0.38911074      -2.27503876
H        1.07861995       0.61450042      -1.09668521
H       -2.60780432      -1.77799912      -3.34945652
H        1.05582570      -1.21065004       2.69770265
H        1.17578236      -0.42216896       0.38794224
H        3.16591142       1.26371792       0.09866153
H        1.72445027       0.34102351       0.07528448
H        3.85316403       2.17298262      -0.51883625
14
Properties=species:S:1:pos:R:3 energy=-4305.117114564319 name=nbu_bent smiles=CCCC config_type=start_19 pbc="F F F"
C        0.12021579      -0.62322961      -0.78385320
C       -0.72686332      -0.40299064       0.47240320
C       -0.73840428      -0.14704827      -0.84975514
C        0.57425316       1.02909724       0.66706725
H        0.50143149       1.36236952      -0.34316756
H       -1.00732159       0.52390119       0.60178801
H       -2.08915941       0.36777088       1.34085908
H       -1.96836794      -1.08857635      -1.45780436
H       -0.19724327      -1.75206147      -0.59571448
H        0.72423304      -2.66739808       2.06200941
H        0.48279412      -1.30568588       0.31241389
H        3.02739924       0.90334802       1.11944233
H        0.27147911       1.09802930       1.27639846
H        1.40573063       1.56062681      -0.86728775
14
Properties=species:S:1:pos:R:3 energy=-4305.117114564319 name=nbu_bent smiles=CCCC config_type=start_20 pbc="F F F"
C       -0.09807308       2.58609963       1.18279558
C        0.32442107      -0.26076723      -1.89035930
C        1.76353768       0.48787457      -0.33999534
C        1.77624787      -1.59714871       0.21996430
H       -1.42714100       2.11491143       1.16047710
H       -2.06490881      -1.47350638       0.23332685
H       -1.31070343       1.42767843      -0.98845331
H       -0.36147806       1.01053441      -1.90921725
H       -0.42945948      -0.27423042      -0.97320661
H       -0.38323845      -2.32813391       0.00220271
H       -0.45944310      -2.32395740       0.62028869
H        2.76393727       0.65173253       1.41216660
H        1.38086343       2.48439898       1.13068805
H       -2.04973892       2.84605149      -1.43238504
14
Properties=species:S:1:pos:R:3 energy=-4305.117114564319 name=nbu_bent smiles=CCCC config_type=start_21 pbc="F F F"
C       -0.59502516      -1.47090691      -1.34611071
C        0.07364582      -0.15028607      -0.77173206
C        1.59556872      -2.02100036       1.62730949
C        0.91334870       0.13922075      -0.39431299
H       -2.42700762       0.80856154       1.29021251
H        0.19963289       0.92253309       0.12066728
H       -3.01554374       2.34880247      -0.33315672
H       -1.00705401       0.34529291      -0.81488446
H       -0.45132291      -2.94748737      -1.69744187
H       -1.27585925      -1.60702723       2.11649588
H        1.70089230      -1.45498548      -0.72977385
H        2.90999370       0.75289199      -0.29385231
H        1.61379087       1.36154935       0.39523847
H        2.95091580       1.53717024       0.64208041
14
Properties=species:S:1:pos:R:3 energy=-4305.117114564319 name=nbu_bent smiles=CCCC config_type=start_22 pbc="F F F"
C       -0.84597476       2.13585363      -2.58352198
C       -0.32095042      -0.35810230       0.95942950
C        0.00442222      -1.04122217       0.39005857
C        2.54881790      -0.81907615       1.09372983
H        0.85208162      -0.01013961       2.30739077
H       -2.72895042       0.03981838      -0.54547697
H       -2.96685571       0.98364929       0.59453453
H       -1.59849578       1.44583006      -2.21163565
H       -0.44334399      -1.65537203      -1.24229840
H        1.23347888      -1.53844581       0.55472300
H        0.52561641      -2.13786898       0.03450115
H        2.96452655       0.32671393      -0.37945111
H        1.00978096       1.80480233      -0.16007533
H        2.31607608       1.98453108      -0.10864608
14
Properties=species:S:1:pos:R:3 energy=-4305.117114564319 name=nbu_bent smiles=CCCC config_type=start_23 pbc="F F F"
C       -1.23595552       0.81389134      -0.88593751
C        0.42845520       0.41822288       0.35180195
C        1.34881507      -2.40992141       1.50471936
C        1.00951909       0.61445439      -0.81595904
H       -0.44881940       0.41078143       2.14122354
H        0.74212391       2.03763564       1.40627050
H       -2.54956254       1.34420541      -0.36912002
H       -0.78949167      -1.63244041      -0.53737760
H       -1.57730480      -0.94485287      -0.47075130
H       -0.29545262       0.25056204       0.68582687
H        1.72687759      -0.37807275      -0.32502819
H        1.20524929      -0.92866461       2.30366042
H        1.41648846       1.75507752      -0.69043856
H        1.40511782       3.13368194      -0.03347008
14
Properties=species:S:1:pos:R:3 energy=-4305.117114564319 name=nbu_bent smiles=CCCC config_type=start_24 pbc="F F F"
C       -1.09659479       0.50106308      -0.35326145
C       -0.68971362      -0.61901009      -3.53488883
C        2.36190179      -2.33682430      -0.46199249
C        2.26647753      -0.83199022       0.58151659
H       -2.75120156       0.64079676       0.15045075
H       -1.93651563      -0.56789303       0.76322865
H       -3.94900686       0.13887421       0.00978188
H        0.19121019       0.61409791      -1.01439111
H       -0.04049156      -0.49913233      -1.24356030
H        0.69411382      -1.29535118       0.41580422
H        2.22706507      -3.04715385       0.80490058
H        0.52002472      -0.48630159       1.49239630
H       -0.17477551       1.92463480       0.05792623
H        0.53996957       0.31465358      -0.89585638
