14
Properties=species:S:1:pos:R:3:forces:R:3:gap_forces:R:3 energy=-4299.539253841275 name=nbu_bent gap_energy=-4299.539253841275 config_type=start_0 pbc="F F F"
C       -1.58674433       0.38058728       0.06027896      -0.96489127      -1.03176617      -0.91117951      -0.96489127      -1.03176617      -0.91117951
C       -0.71327357      -0.40772520      -0.75022916      11.24417419      -4.81801223       2.04823627      11.24417419      -4.81801223       2.04823627
C        0.62952437      -0.94545484       0.06738952       4.85094739       8.12192458     -16.69587221       4.85094739       8.12192458     -16.69587221
C        1.56380328       0.52070826       0.45402108       0.58314246      -6.00821382      -3.54400642       0.58314246      -6.00821382      -3.54400642
H       -1.16943900       1.34094503       0.26378842      -1.96713496      -0.11806578      -0.56202973      -1.96713496      -0.11806578      -0.56202973
H       -2.17898619      -0.16452802       0.87460514       4.97239366      -2.09777306       7.60165396       4.97239366      -2.09777306       7.60165396
H       -2.44885953       0.34958888      -0.55019960      -5.18374860       4.46005140      -6.10226468      -5.18374860       4.46005140      -6.10226468
H       -0.05014118      -0.01746878      -1.57981682      -0.65151710      -1.32224476       0.27161395      -0.65151710      -1.32224476       0.27161395
H       -1.15122995      -1.44379607      -0.99246341      -1.84177920       1.95004093      -0.54706184      -1.84177920       1.95004093      -0.54706184
H        0.44080511      -1.14323970       0.82213992      -7.70632455      -4.49199508      13.67336209      -7.70632455      -4.49199508      13.67336209
H        1.41267064      -1.49431976      -0.37297258      -3.41376217       1.56137278       0.68258424      -3.41376217       1.56137278       0.68258424
H        2.43997493       0.04113146       0.89721820       3.05469825       0.58251729       2.39842993       3.05469825       0.58251729       2.39842993
H        1.30385116       1.26050469       1.08727846      -1.64585643       2.12583763       2.37739486      -1.64585643       2.12583763       2.37739486
H        1.91937526       0.92251129      -0.50887447      -1.33034169       1.08632629      -0.69086091      -1.33034169       1.08632629      -0.69086091
14
Properties=species:S:1:pos:R:3:forces:R:3:gap_forces:R:3 energy=-4301.682109384755 name=nbu_bent gap_energy=-4301.682109384755 config_type=start_1 pbc="F F F"
C       -1.62135685       0.50034177       0.08977742       8.51981088      -5.25778012      -0.50432973       8.51981088      -5.25778012      -0.50432973
C       -0.54572062      -0.33763314      -0.69005652      -3.65061979      -0.68094093       0.92376550      -3.65061979      -0.68094093       0.92376550
C        0.80571408      -0.64703814      -0.02762316      -2.74383151      -2.52082595       3.06951048      -2.74383151      -2.52082595       3.06951048
C        1.49656042       0.55745989       0.50201688      10.28256794      -1.75625546      -5.62636210      10.28256794      -1.75625546      -5.62636210
H       -1.20854534       1.31537073       0.31721486       1.45231611       1.38148549       1.56336276       1.45231611       1.38148549       1.56336276
H       -1.92286299      -0.18645368       1.25014236       2.12836257       1.23071953      -3.67633541       2.12836257       1.23071953      -3.67633541
H       -2.33171432       0.53497413      -0.50318460      -5.28280251      -0.61271420      -0.33501843      -5.28280251      -0.61271420      -0.33501843
H       -0.10871718      -0.05776086      -1.52349724      -0.78901936       0.06898627      -1.78840832      -0.78901936       0.06898627      -1.78840832
H       -1.02572610      -1.30804832      -0.82506644      -2.02748165       1.06746512       0.06250728      -2.02748165       1.06746512       0.06250728
H        0.52322583      -1.26480198       1.07941706      -2.19062339      -0.60612239      -1.91282453      -2.19062339      -0.60612239      -1.91282453
H        1.52864927      -1.60986510      -0.40601811      -0.11682918       2.89644625       1.26756743      -0.11682918       2.89644625       1.26756743
H        2.56911536       0.40299178       1.15835179       3.23911593      -0.58357143      -1.97639692       3.23911593      -0.58357143      -1.97639692
H        1.20943738       1.12956406       1.18872547      -8.90728728       6.78911031       7.63381651      -8.90728728       6.78911031       7.63381651
H        1.88010541       1.11814040      -0.35728586       0.08632125      -1.41600248       1.29914546       0.08632125      -1.41600248       1.29914546
14
Properties=species:S:1:pos:R:3:forces:R:3:gap_forces:R:3 energy=-4302.830297556879 name=nbu_bent gap_energy=-4302.830297556879 config_type=start_2 pbc="F F F"
C       -1.61067519       0.36373954       0.08042845       3.62592409       2.38925169      -0.12243776       3.62592409       2.38925169      -0.12243776
C       -0.59508217      -0.48624061      -0.76720254       5.87089897      -2.37071391       2.90086709       5.87089897      -2.37071391       2.90086709
C        0.88432514      -0.88938051       0.08632647      -7.99903176      10.77296328       4.70813264      -7.99903176      10.77296328       4.70813264
C        1.59888736       0.51749131       0.45970329      -3.58892621      -4.82747095      -6.04354227      -3.58892621      -4.82747095      -6.04354227
H       -1.18526350       1.49511038       0.20603626      -0.56205304      -2.56861013      -0.46077729      -0.56205304      -2.56861013      -0.46077729
H       -1.87464155      -0.05251351       1.07522525       1.24674860      -0.66851945      -1.10722046       1.24674860      -0.66851945      -1.10722046
H       -2.44954419       0.58518045      -0.67098514      -1.66944400       0.40064881       1.59147074      -1.66944400       0.40064881       1.59147074
H       -0.18275034      -0.08861473      -1.65250907       0.45455453       1.49921879      -3.77281605       0.45455453       1.49921879      -3.77281605
H       -1.15436897      -1.36438908      -1.10673940      -2.21520954      -0.19798417       0.42344902      -2.21520954      -0.19798417       0.42344902
H        0.59895061      -1.21115815       1.02552308       0.26688609      -0.48135962      -0.28520678       0.26688609      -0.48135962      -0.28520678
H        1.29720217      -1.51192233      -0.48384927       3.83115781      -2.22033912      -1.35135290       3.83115781      -2.22033912      -1.35135290
H        2.44734073       0.26507166       0.85336587       4.82467874      -1.91160558       2.96100801       4.82467874      -1.91160558       2.96100801
H        1.10739077       1.20879648       1.03936702      -2.89887923      -0.37364959       0.91650403      -2.89887923      -0.37364959       0.91650403
H        1.75352009       0.94330734      -0.49584330      -1.18730503       0.55816995      -0.35807803      -1.18730503       0.55816995      -0.35807803
14
Properties=species:S:1:pos:R:3:forces:R:3:gap_forces:R:3 energy=-4304.116425653355 name=nbu_bent gap_energy=-4304.116425653355 config_type=start_3 pbc="F F F"
C       -1.75323731       0.38030573      -0.01340394       9.55915142       1.57322268       0.53095878       9.55915142       1.57322268       0.53095878
C       -0.53524347      -0.36889042      -0.75619448      -0.97575336       1.15132768       2.23191197      -0.97575336       1.15132768       2.23191197
C        0.77475996      -0.67468378       0.08212684      -5.07960646      -4.63027029       0.69057145      -5.07960646      -4.63027029       0.69057145
C        1.63421480       0.41944941       0.31976485       1.30339329       6.44904214       6.75750733       1.30339329       6.44904214       6.75750733
H       -1.29455645       1.51262161       0.23138682       0.15994055      -3.45945147      -0.97076784       0.15994055      -3.45945147      -0.97076784
H       -1.92478627       0.10914618       1.02758449      -0.72308048      -0.70349439      -0.29702973      -0.72308048      -0.70349439      -0.29702973
H       -2.56801910       0.56917083      -0.65385800      -4.16150158       0.74474301       0.59571072      -4.16150158       0.74474301       0.59571072
H       -0.08553659       0.21542951      -1.56088174      -1.48955322       0.09789365      -2.90129606      -1.48955322       0.09789365      -2.90129606
H       -0.99088385      -1.41235642      -0.92403504      -2.28642415       2.37431576      -2.47835273      -2.28642415       2.37431576      -2.47835273
H        0.35434915      -1.24738692       1.21877878      -0.68089877       0.52998954       2.04999395      -0.68089877       0.52998954       2.04999395
H        1.58022870      -1.57299762      -0.59899734       4.28708878      -3.09900659      -0.69985694       4.28708878      -3.09900659      -0.69985694
H        2.58874766       0.32942413       0.88579089       0.83121534       0.86125903       1.86924717       0.83121534       0.86125903       1.86924717
H        0.93320285       1.16177999       1.05103530       1.07978228      -3.64728848      -3.83557412       1.07978228      -3.64728848      -3.83557412
H        1.93214170       0.90855291      -0.52328164      -1.82375363       1.75771773      -3.54302396      -1.82375363       1.75771773      -3.54302396
14
Properties=species:S:1:pos:R:3:forces:R:3:gap_forces:R:3 energy=-4301.6756880690955 name=nbu_bent gap_energy=-4301.6756880690955 config_type=start_4 pbc="F F F"
C       -1.69298363       0.37688254       0.00632630       9.12555754       2.78094157       1.64109815       9.12555754       2.78094157       1.64109815
C       -0.42539456      -0.46268534      -0.79868425     -14.61311577       1.62421983      -1.20520013     -14.61311577       1.62421983      -1.20520013
C        0.65111818      -0.70741233      -0.07427055      11.67512021      -5.79191730       9.37657710      11.67512021      -5.79191730       9.37657710
C        1.40900538       0.55259095       0.45958003      10.79040463      -5.84682096      -7.55050141      10.79040463      -5.84682096      -7.55050141
H       -1.21785505       1.53108092       0.33157046      -2.33718893      -5.69730737      -3.22365978      -2.33718893      -5.69730737      -3.22365978
H       -1.90303300      -0.01791275       0.99203184      -0.87868770      -0.13470328       0.08491247      -0.87868770      -0.13470328       0.08491247
H       -2.56796383       0.53190984      -0.45102971      -4.38829203       1.98174128      -1.28705086      -4.38829203       1.98174128      -1.28705086
H        0.00718634       0.00737653      -1.52597578      -1.28270232       2.38688670      -4.67721121      -1.28270232       2.38688670      -4.67721121
H       -1.00389542      -1.54947440      -1.01504903       1.78887821       3.56408280      -1.27540812       1.78887821       3.56408280      -1.27540812
H        0.31801028      -1.09599962       1.17498907       1.77945973      -0.65269896      -0.65680710       1.77945973      -0.65269896      -0.65680710
H        1.41361448      -1.57360822      -0.44400747      -0.39934261       1.07368093       1.66514369      -0.39934261       1.07368093       1.66514369
H        2.48081214       0.21939596       1.04355697      -3.68808341       2.29496392      -1.70854184      -3.68808341       2.29496392      -1.70854184
H        0.99384720       1.15913052       1.09685959      -4.81552686       4.67776874       4.98910777      -4.81552686       4.67776874       4.98910777
H        1.76211416       0.98235581      -0.61452287      -2.75648070      -2.26083789       3.82754126      -2.75648070      -2.26083789       3.82754126
14
Properties=species:S:1:pos:R:3:forces:R:3:gap_forces:R:3 energy=-4296.118148792119 name=nbu_bent gap_energy=-4296.118148792119 config_type=start_5 pbc="F F F"
C       -1.74385661       0.49470142       0.02771558      13.37536056      -5.13604470       7.90365927      13.37536056      -5.13604470       7.90365927
C       -0.62875721      -0.53544202      -0.95286335       4.24370918       7.47829576       8.68142545       4.24370918       7.47829576       8.68142545
C        0.69404033      -0.66208115       0.12092273     -11.81170708     -16.96424166      -7.15365938     -11.81170708     -16.96424166      -7.15365938
C        1.40721081       0.47451321       0.28288331      12.07099857      13.16715120      11.24750651      12.07099857      13.16715120      11.24750651
H       -1.28401299       1.44057024       0.36097586      -3.73989858      -3.33434881      -1.52317878      -3.73989858      -3.33434881      -1.52317878
H       -2.00199021      -0.08616050       0.94310447       1.54401119       2.69667136      -2.31435204       1.54401119       2.69667136      -2.31435204
H       -2.33249004       0.53383333      -0.62505497      -8.53659733       1.87357181      -7.68158246      -8.53659733       1.87357181      -7.68158246
H       -0.24861180       0.09486695      -1.66814552      -2.54587801      -2.46983263      -0.02848661      -2.54587801      -2.46983263      -0.02848661
H       -0.88723376      -1.48365562      -0.83449844      -3.34084367       0.32697713      -3.63582518      -3.34084367       0.32697713      -3.63582518
H        0.54460363      -1.38745330       1.22988227      -1.73600821       1.07012454       1.82170767      -1.73600821       1.07012454       1.82170767
H        1.28114747      -1.59510456      -0.35943306       2.24015365      -0.39739230       0.37455615       2.24015365      -0.39739230       0.37455615
H        2.39175447       0.14345393       1.08304122       0.45306542      -2.25633563       1.89346985       0.45306542      -2.25633563       1.89346985
H        1.16152078       1.28375708       0.93495199      -5.72738360       1.10230043       4.64060139      -5.72738360       1.10230043       4.64060139
H        2.01530423       0.98413357      -0.25742786       3.51101792       2.84310350     -14.22584185       3.51101792       2.84310350     -14.22584185
14
Properties=species:S:1:pos:R:3:forces:R:3:gap_forces:R:3 energy=-4302.401160318266 name=nbu_bent gap_energy=-4302.401160318266 config_type=start_6 pbc="F F F"
C       -1.43839561       0.41270989       0.11703215      -1.13224320      -0.47570688       1.89655967      -1.13224320      -0.47570688       1.89655967
C       -0.32472098      -0.53419775      -0.63603086     -17.12618207       2.09022430      -6.30444499     -17.12618207       2.09022430      -6.30444499
C        0.82285981      -0.65987661       0.06632920       2.07258304     -18.42187497       3.45845687       2.07258304     -18.42187497       3.45845687
C        1.54526449       0.41835144       0.40106086      14.31384293      14.77652661       5.15524028      14.31384293      14.77652661       5.15524028
H       -1.16909932       1.49444105       0.55368620       0.78533341      -4.18722442      -2.58865307       0.78533341      -4.18722442      -2.58865307
H       -1.89937700      -0.19963725       0.98956592       1.71558000       0.44441359      -0.25284928       1.71558000       0.44441359      -0.25284928
H       -2.34243818       0.66180731      -0.53527127       0.95919631       0.32489736       0.69097418       0.95919631       0.32489736       0.69097418
H       -0.21704165      -0.09792117      -1.59847687       2.13526898       1.14570907      -2.66537882       2.13526898       1.14570907      -2.66537882
H       -1.04640071      -1.47011733      -0.92345604       0.81915197       0.17998187       0.59461983       0.81915197       0.17998187       0.59461983
H        0.52305386      -1.25999840       1.08276579      -1.79341265       1.98510739      -0.98984177      -1.79341265       1.98510739      -0.98984177
H        1.41434013      -1.44394706      -0.37869699      -1.68548878       3.08459628       0.30132167      -1.68548878       3.08459628       0.30132167
H        2.40852381       0.12554948       0.99924552       2.88946688      -0.36131459       1.76347681       2.88946688      -0.36131459       1.76347681
H        1.06481418       1.18652376       0.97386868      -4.39093669       0.44226354       3.78541233      -4.39093669       0.44226354       3.78541233
H        1.84752747       0.99554972      -0.42108391       0.43783988      -1.02759915      -4.84489371       0.43783988      -1.02759915      -4.84489371
14
Properties=species:S:1:pos:R:3:forces:R:3:gap_forces:R:3 energy=-4291.819546162583 name=nbu_bent gap_energy=-4291.819546162583 config_type=start_7 pbc="F F F"
C       -1.59042914       0.51167423      -0.00119442      11.62831311      -7.13250271       5.24388303      11.62831311      -7.13250271       5.24388303
C       -0.54824026      -0.63168321      -0.72978462      11.83993223      28.93189437       6.75588814      11.83993223      28.93189437       6.75588814
C        0.93669478      -0.66976100       0.09777556      -7.72109304      -2.50765143       0.85378273      -7.72109304      -2.50765143       0.85378273
C        1.81165537       0.40673059       0.62345448     -24.38017246       4.87971712     -17.84222611     -24.38017246       4.87971712     -17.84222611
H       -1.28963911       1.53819563       0.13483530       0.67958683      -2.41056643      -1.30747310       0.67958683      -2.41056643      -1.30747310
H       -1.97231555      -0.03307883       1.17648415       3.69257959       0.84940611      -3.29086096       3.69257959       0.84940611      -3.29086096
H       -2.33442527       0.38646606      -0.49752683      -8.67952460       0.44770126      -5.10780089      -8.67952460       0.44770126      -5.10780089
H       -0.34550276       0.12016718      -1.77862405       0.73224060      -4.63985528       5.79329395       0.73224060      -4.63985528       5.79329395
H       -0.89163098      -1.40087515      -0.87123149     -11.21989990     -16.48066152      -5.47836258     -11.21989990     -16.48066152      -5.47836258
H        0.61318420      -1.30759539       1.03376593      -4.57173667       1.78357307       7.60230500      -4.57173667       1.78357307       7.60230500
H        1.31321117      -1.53357235      -0.18117674       7.80474499       0.63499690      -8.12560110       7.80474499       0.63499690      -8.12560110
H        2.45713706       0.41512640       1.18884491      17.61613224      -2.31560815      11.70445857      17.61613224      -2.31560815      11.70445857
H        0.94710575       1.05291298       1.08035006       1.13183703       0.36947595      -0.00235435       1.13183703       0.36947595      -0.00235435
H        1.75897893       0.96362315      -0.58650819       1.44706005      -2.40991925       3.20106765       1.44706005      -2.40991925       3.20106765
14
Properties=species:S:1:pos:R:3:forces:R:3:gap_forces:R:3 energy=-4301.380158654886 name=nbu_bent gap_energy=-4301.380158654886 config_type=start_8 pbc="F F F"
C       -1.69240718       0.39260759      -0.14688467      10.54828527      -4.53072005       9.24924131      10.54828527      -4.53072005       9.24924131
C       -0.62438513      -0.42194307      -0.67242977       7.22184041       0.48679442      -2.81294221       7.22184041       0.48679442      -2.81294221
C        0.81134805      -0.81953487       0.13634035      -7.28998399       0.92524195      -0.63033085      -7.28998399       0.92524195      -0.63033085
C        1.63738132       0.42534369       0.51159897      -3.42636285       6.48941142      -3.25815613      -3.42636285       6.48941142      -3.25815613
H       -1.23687733       1.32946799       0.25322423       0.91319184      -1.44967518      -0.71562226       0.91319184      -1.44967518      -0.71562226
H       -2.00898028      -0.20823689       1.00640812       3.82284062       1.09284710      -3.88546541       3.82284062       1.09284710      -3.88546541
H       -2.48924302       0.50182827      -0.67606767      -6.29821851       1.24305228      -2.29315346      -6.29821851       1.24305228      -2.29315346
H       -0.17838559       0.15781227      -1.75143714      -0.45592947      -0.79878961       1.29175514      -0.45592947      -0.79878961       1.29175514
H       -1.12183840      -1.43512702      -0.88853826      -2.22093004       0.88131660      -0.30290249      -2.22093004       0.88131660      -0.30290249
H        0.51835483      -1.33573166       0.91759761      -7.25349996       1.70555345       7.23837656      -7.25349996       1.70555345       7.23837656
H        1.35001421      -1.54062213      -0.30253858       4.60699113      -0.61232794      -6.75201815       4.60699113      -0.61232794      -6.75201815
H        2.48285549       0.25979459       1.10843778       2.31646908       0.54934085       0.89021832       2.31646908       0.54934085       0.89021832
H        0.98840309       1.26841343       0.98661213      -1.05859566      -1.71266421      -0.72993567      -1.05859566      -1.71266421      -0.72993567
H        1.89555135       1.26289681      -0.42049244      -1.42609788      -4.26938110       2.71093529      -1.42609788      -4.26938110       2.71093529
14
Properties=species:S:1:pos:R:3:forces:R:3:gap_forces:R:3 energy=-4300.888576979124 name=nbu_bent gap_energy=-4300.888576979124 config_type=start_9 pbc="F F F"
C       -1.57755133       0.33393474      -0.01248278      -5.12021310       3.44654822       1.64856525      -5.12021310       3.44654822       1.64856525
C       -0.61753880      -0.45500820      -0.70006488       6.93050904       3.24339982       2.65873258       6.93050904       3.24339982       2.65873258
C        0.57593607      -0.73703052       0.13045551       1.23544063       0.61201354      -3.15723989       1.23544063       0.61201354      -3.15723989
C        1.45187499       0.55579191       0.29683240       6.40410747       3.22420865       8.09944070       6.40410747       3.22420865       8.09944070
H       -1.23424892       1.70399235       0.38047495       0.95489155      -4.15727610      -2.81904661       0.95489155      -4.15727610      -2.81904661
H       -1.90678405      -0.10735630       0.98392191       1.56710292      -0.55939662      -0.97709812       1.56710292      -0.55939662      -0.97709812
H       -2.50084757       0.29493181      -0.66401945       0.49539290       0.89981757       0.87226018       0.49539290       0.89981757       0.87226018
H       -0.03106331       0.19941188      -1.72408072      -2.43551837      -2.38289150       0.17691330      -2.43551837      -2.38289150       0.17691330
H       -0.84454385      -1.41963067      -0.81841009      -0.58519428       0.43888772      -2.58816044      -0.58519428       0.43888772      -2.58816044
H        0.25619218      -1.07101599       1.03457806      -3.12519467      -2.68595686       3.75138655      -3.12519467      -2.68595686       3.75138655
H        1.32725146      -1.44087043      -0.25327364      -0.01202085       0.78084450      -0.96748462      -0.01202085       0.78084450      -0.96748462
H        2.53511382       0.29739630       1.09609219      -2.60760711       1.79125350      -3.99221389      -2.60760711       1.79125350      -3.99221389
H        1.07215510       1.17382259       1.35236817      -0.86878333      -1.51471869      -2.87226114      -0.86878333      -1.51471869      -2.87226114
H        1.99971451       1.08286862      -0.55909330      -2.83291279      -3.13673376       0.16620614      -2.83291279      -3.13673376       0.16620614
14
Properties=species:S:1:pos:R:3:forces:R:3:gap_forces:R:3 energy=-4298.709144739251 name=nbu_bent gap_energy=-4298.709144739251 config_type=start_10 pbc="F F F"
C       -1.58712848       0.41679577      -0.07024370      -9.38763169       7.45571964      10.44624350      -9.38763169       7.45571964      10.44624350
C       -0.71806191      -0.47977000      -0.60364295      18.95381930      -8.14068078      -6.15337741      18.95381930      -8.14068078      -6.15337741
C        0.91460451      -0.55221493      -0.03803823      -8.22669521      -4.23280577       0.04051204      -8.22669521      -4.23280577       0.04051204
C        1.77408381       0.62465436       0.32052464      -9.99064430      -8.96276433       8.64563361      -9.99064430      -8.96276433       8.64563361
H       -1.44309286       1.43310031       0.25520242       8.28836017       4.48902002       2.60180489       8.28836017       4.48902002       2.60180489
H       -1.86128738      -0.02211194       1.07411004       2.32122709      -0.82676175      -3.90855075       2.32122709      -0.82676175      -3.90855075
H       -2.51336892       0.72831612      -0.55677466      -4.92850726      -3.55346674      -3.85089934      -4.92850726      -3.55346674      -3.85089934
H       -0.29659199       0.18174312      -1.64766915      -0.33047937      -1.03470449       0.29670236      -0.33047937      -1.03470449       0.29670236
H       -0.99113226      -1.53862659      -1.03284043      -1.90516819       2.17606226       2.09590022      -1.90516819       2.17606226       2.09590022
H        0.44991375      -1.00057613       0.97391531       1.00433644       0.32586482      -1.43546278       1.00433644       0.32586482      -1.43546278
H        1.52234114      -1.52113462      -0.44229099       0.00879150       4.51493630       0.47420285       0.00879150       4.51493630       0.47420285
H        2.44943562       0.25839611       1.06531032       1.32645436       2.74800216      -2.09583290       1.32645436       2.74800216      -2.09583290
H        1.03267577       1.26185327       1.01405096      -0.98291076       0.26940150       0.96504140      -0.98291076       0.26940150       0.96504140
H        1.75642832       1.11840861      -0.43202522       3.84904791       4.77217715      -8.12191766       3.84904791       4.77217715      -8.12191766
14
Properties=species:S:1:pos:R:3:forces:R:3:gap_forces:R:3 energy=-4302.202191654306 name=nbu_bent gap_energy=-4302.202191654306 config_type=start_11 pbc="F F F"
C       -1.66317541       0.32219247       0.12380053       5.61671550       6.29187950     -12.25451206       5.61671550       6.29187950     -12.25451206
C       -0.48895297      -0.33466824      -0.57676562      -0.44453626      -0.71499933      -6.79633218      -0.44453626      -0.71499933      -6.79633218
C        0.71436611      -0.72721927       0.01264563       2.72728774       0.21384996       8.53225454       2.72728774       0.21384996       8.53225454
C        1.59057963       0.43980350       0.50938580       7.89230207       0.73032237      -5.56487908       7.89230207       0.73032237      -5.56487908
H       -1.08201789       1.41764939       0.17574865      -2.88633455      -3.99855793      -0.51739835      -2.88633455      -3.99855793      -0.51739835
H       -1.94175303      -0.02777946       0.93306995      -3.15829807      -3.46464748       8.54593636      -3.15829807      -3.46464748       8.54593636
H       -2.52096904       0.30259952      -0.64930818      -1.04908136       1.88448891       2.92302344      -1.04908136       1.88448891       2.92302344
H       -0.17041860      -0.01541597      -1.63349212      -0.97663747      -0.90598906       3.47520488      -0.97663747      -0.90598906       3.47520488
H       -1.05323831      -1.57632457      -1.00811109      -2.60922483       1.70171563      -0.07038557      -2.60922483       1.70171563      -0.07038557
H        0.32766492      -1.28305798       1.10753951       1.30022452      -1.03487640      -2.14188479       1.30022452      -1.03487640      -2.14188479
H        1.59865491      -1.25302534      -0.34180943       0.44032664      -1.18815647      -0.58921694       0.44032664      -1.18815647      -0.58921694
H        2.58828181       0.17128963       1.15016160      -1.86133170       1.67649163      -1.45102070      -1.86133170       1.67649163      -1.45102070
H        1.10873828       1.15086925       1.03691127      -3.83545975       0.55193405       1.10798118      -3.83545975       0.55193405       1.10798118
H        1.97349798       1.00605125      -0.60594037      -1.15595249      -1.74345539       4.80122927      -1.15595249      -1.74345539       4.80122927
14
Properties=species:S:1:pos:R:3:forces:R:3:gap_forces:R:3 energy=-4295.09588137035 name=nbu_bent gap_energy=-4295.09588137035 config_type=start_12 pbc="F F F"
C       -1.43860317       0.41354978       0.17405987     -16.95114570     -38.95468741      -8.44955396     -16.95114570     -38.95468741      -8.44955396
C       -0.57147606      -0.43073526      -0.78840105       5.83086694      -9.80051746      12.05374977       5.83086694      -9.80051746      12.05374977
C        0.71208864      -0.81859027       0.07575579      -4.52346313       7.12459954       0.69740581      -4.52346313       7.12459954       0.69740581
C        1.58224434       0.56469863       0.43308200     -10.91805976     -10.25900926       2.97779205     -10.91805976     -10.25900926       2.97779205
H       -1.30825760       1.07039097       0.37655948      13.78006743      39.08255066       7.74839820      13.78006743      39.08255066       7.74839820
H       -1.96149883      -0.03518974       0.98397014       2.86128648      -2.98427727      -0.54320828       2.86128648      -2.98427727      -0.54320828
H       -2.45611312       0.33583039      -0.57942860      -0.94885582      -0.08289662      -1.53474442      -0.94885582      -0.08289662      -1.53474442
H       -0.30327302      -0.17769791      -1.52833645       6.15486604      12.36446455      -9.75856833       6.15486604      12.36446455      -9.75856833
H       -0.68769115      -1.39221892      -0.94079979      -6.39459791       1.45699082       2.69896257      -6.39459791       1.45699082       2.69896257
H        0.41345128      -1.29544884       1.12837160       0.72224566       0.49156684       0.03164706       0.72224566       0.49156684       0.03164706