14
Properties=species:S:1:pos:R:3:forces:R:3:gap_forces:R:3 energy=-4310.172057108435 name=tbu gap_energy=-4310.172057108435 config_type=start_0 pbc="F F F"
C        0.02178116       0.06814276      -0.44796414       0.63895300       0.42571186      -0.52696113       0.63895300       0.42571186      -0.52696113
C        0.46385511       1.37413216       0.29139001       0.27624764       3.38034961       0.82944730       0.27624764       3.38034961       0.82944730
C       -1.47818237      -0.23540996      -0.21482631      -3.35911247      -0.90935514      -0.05731622      -3.35911247      -0.90935514      -0.05731622
C        0.92224831      -1.11997797      -0.00691661       1.91158552      -3.98821851       0.24743632       1.91158552      -3.98821851       0.24743632
H        0.18900023       0.20516387      -1.53884220       0.19381431       0.23503813      -2.60675495       0.19381431       0.23503813      -2.60675495
H       -0.14480641       2.24396932      -0.05037698       2.05469792      -0.19301544       1.34176051       2.05469792      -0.19301544       1.34176051
H        1.51696627       1.59706413       0.08300977      -1.38858348       1.39917710       0.91227892      -1.38858348       1.39917710       0.91227892
H        0.31581107       1.27953024       1.37609866       0.64961043      -0.04140824      -1.26689197       0.64961043      -0.04140824      -1.26689197
H       -1.64685085      -0.38592018       0.85342202      -0.69641496      -0.04382196      -1.05172490      -0.69641496      -0.04382196      -1.05172490
H       -2.09806348       0.59967224      -0.54731391      -0.67469449      -2.02225773       0.36126159      -0.67469449      -2.02225773       0.36126159
H       -1.78333321      -1.16709020      -0.74401799      -1.20620958       2.09348891       1.04073887      -1.20620958       2.09348891       1.04073887
H        0.79194339      -1.33051981       1.06490471       0.60005750       0.60097452      -1.20147801       0.60005750       0.60097452      -1.20147801
H        1.98483804      -0.93123900      -0.22327297      -1.06541780      -1.71833837       0.64301078      -1.06541780      -1.71833837       0.64301078
H        0.63026434      -2.05180650      -0.56230730       2.06546647       0.78167526       1.33519290       2.06546647       0.78167526       1.33519290
14
Properties=species:S:1:pos:R:3:forces:R:3:gap_forces:R:3 energy=-4310.127457171001 name=tbu gap_energy=-4310.127457171001 config_type=start_1 pbc="F F F"
C        0.02212508       0.06852454      -0.44967473       0.10473122       0.27616858      -0.73685944       0.10473122       0.27616858      -0.73685944
C        0.45717435       1.37435648       0.26243564       1.43057733       4.42834404       2.06947630       1.43057733       4.42834404       2.06947630
C       -1.47971343      -0.21619752      -0.21907421      -4.69287174      -1.91884836       0.20924118      -4.69287174      -1.91884836       0.20924118
C        0.90928275      -1.12332675      -0.03204301       3.16957181      -3.78795534       1.36968586       3.16957181      -3.78795534       1.36968586
H        0.16196238       0.21572817      -1.53004589       0.20698338       0.34094155      -2.87817146       0.20698338       0.34094155      -2.87817146
H       -0.15418888       2.23361985      -0.06552748       2.05886373      -0.02020054       1.14950993       2.05886373      -0.02020054       1.14950993
H        1.51854536       1.60807154       0.08358115      -1.47996439       1.19964280       0.73390738      -1.47996439       1.19964280       0.73390738
H        0.34050845       1.28100330       1.36900289      -0.04102903       0.20605728      -1.72949039      -0.04102903       0.20605728      -1.72949039
H       -1.66784731      -0.38884251       0.86333602       0.19612839       0.39437756      -1.46027327       0.19612839       0.39437756      -1.46027327
H       -2.11335602       0.62206026      -0.53790401      -0.60588470      -2.16506359       0.35208312      -0.60588470      -2.16506359       0.35208312
H       -1.79682230      -1.15607776      -0.74849854      -0.96667230       2.35448532       1.13451190      -0.96667230       2.35448532       1.13451190
H        0.80481511      -1.30493520       1.05698222       0.25849503      -0.02597344      -1.57852013       0.25849503      -0.02597344      -1.57852013
H        1.98074252      -0.94337866      -0.20875893      -1.00117760      -1.56485998       0.41873512      -1.00117760      -1.56485998       0.41873512
H        0.64847304      -2.04359475      -0.55140002       1.36224888       0.28288412       0.94616390       1.36224888       0.28288412       0.94616390
14
Properties=species:S:1:pos:R:3:forces:R:3:gap_forces:R:3 energy=-4310.253085040011 name=tbu gap_energy=-4310.253085040011 config_type=start_2 pbc="F F F"
C        0.04075356       0.07971917      -0.43927317      -0.29481856      -0.60780058      -0.73263944      -0.29481856      -0.60780058      -0.73263944
C        0.45880773       1.37682687       0.28756932       1.13949525       3.80364503       0.87551110       1.13949525       3.80364503       0.87551110
C       -1.47155511      -0.23786340      -0.21301204      -3.58941590      -0.69966934       0.47325656      -3.58941590      -0.69966934       0.47325656
C        0.92755536      -1.13708892      -0.02208983       1.85506370      -2.13168065       0.53217645       1.85506370      -2.13168065       0.53217645
H        0.18253950       0.23213701      -1.52502652       0.49087123       0.28621627      -2.60705622       0.49087123       0.28621627      -2.60705622
H       -0.14546455       2.26537575      -0.05908497       2.03564601      -0.94996232       1.51244604       2.03564601      -0.94996232       1.51244604
H        1.51543717       1.60596167       0.08223411      -1.41426880       1.53645951       0.84982557      -1.41426880       1.53645951       0.84982557
H        0.32875782       1.27446352       1.36869930       0.15041827       0.43907294      -1.11140480       0.15041827       0.43907294      -1.11140480
H       -1.67222188      -0.39247563       0.86554272       0.21676831      -0.04588712      -1.59286793       0.21676831      -0.04588712      -1.59286793
H       -2.10499506       0.60047018      -0.52063470      -0.56306798      -1.79632639       0.29742721      -0.56306798      -1.79632639       0.29742721
H       -1.79624824      -1.14420960      -0.75755773      -1.01896665       1.74445273       1.14882651      -1.01896665       1.74445273       1.14882651
H        0.81549008      -1.31402604       1.05120662       0.10681578      -0.09302096      -1.16076185       0.10681578      -0.09302096      -1.16076185
H        1.98813694      -0.92492206      -0.21885655      -1.07427646      -1.94234231       0.39780284      -1.07427646      -1.94234231       0.39780284
H        0.63062236      -2.05163517      -0.55264551       1.95973581       0.45684320       1.11745796       1.95973581       0.45684320       1.11745796
14
Properties=species:S:1:pos:R:3:forces:R:3:gap_forces:R:3 energy=-4310.193913497567 name=tbu gap_energy=-4310.193913497567 config_type=start_3 pbc="F F F"
C        0.02295967       0.06448909      -0.44819901       0.60824174       0.62705899      -0.72715436       0.60824174       0.62705899      -0.72715436
C        0.46063902       1.37792633       0.26962659       1.18117673       3.67648953       1.34225013       1.18117673       3.67648953       1.34225013
C       -1.47894665      -0.21930738      -0.20436172      -3.58332072      -1.92968508      -0.50840754      -3.58332072      -1.92968508      -0.50840754
C        0.91959870      -1.13102858      -0.02592938       2.79133785      -3.12569501       1.30392281       2.79133785      -3.12569501       1.30392281
H        0.19270536       0.21748425      -1.53902663       0.29981532       0.31243807      -2.48367152       0.29981532       0.31243807      -2.48367152
H       -0.15844380       2.22482346      -0.07188115       2.01352900      -0.09514434       1.08621504       2.01352900      -0.09514434       1.08621504
H        1.52296913       1.64239102       0.09704317      -1.82065003       0.41506784       0.79894830      -1.82065003       0.41506784       0.79894830
H        0.33065839       1.25974980       1.35252603       0.22815284       0.32913686      -1.26928237       0.22815284       0.32913686      -1.26928237
H       -1.67502366      -0.40014921       0.85980231       0.13609148       0.15126860      -1.29963857       0.13609148       0.15126860      -1.29963857
H       -2.11501486       0.59873790      -0.56220410      -0.80057045      -1.89975797       0.61483848      -0.80057045      -1.89975797       0.61483848
H       -1.78174096      -1.14886397      -0.77027865      -1.18265601       2.16283866       1.38225012      -1.18265601       2.16283866       1.38225012
H        0.80333201      -1.32867039       1.07552255       0.24945310       0.23508293      -2.17263848       0.24945310       0.23508293      -2.17263848
H        2.00376841      -0.93948412      -0.21051934      -1.58825878      -1.42394331       0.63570809      -1.58825878      -1.42394331       0.63570809
H        0.64308450      -2.05073693      -0.57046954       1.46765792       0.56484424       1.29665988       1.46765792       0.56484424       1.29665988
14
Properties=species:S:1:pos:R:3:forces:R:3:gap_forces:R:3 energy=-4310.105530199652 name=tbu gap_energy=-4310.105530199652 config_type=start_4 pbc="F F F"
C        0.03905250       0.08067624      -0.46167519      -0.31957127       0.07897930       0.07393661      -0.31957127       0.07897930       0.07393661
C        0.44941155       1.38726042       0.27415823       2.37529362       3.44678658       1.27048644       2.37529362       3.44678658       1.27048644
C       -1.46317560      -0.22029474      -0.21072040      -5.16555969      -1.85536959       0.39807238      -5.16555969      -1.85536959       0.39807238
C        0.91347624      -1.11802824      -0.01916949       3.48480958      -3.91299393       1.26864489       3.48480958      -3.91299393       1.26864489
H        0.17708696       0.22997214      -1.53019031       0.49512134       0.74844887      -3.17136287       0.49512134       0.74844887      -3.17136287
H       -0.14206286       2.22500577      -0.05658572       1.47296087       0.59729344       0.86405260       1.47296087       0.59729344       0.86405260
H        1.52260605       1.61446961       0.07071033      -2.09740160       0.82360783       1.06977781      -2.09740160       0.82360783       1.06977781
H        0.31182689       1.27505657       1.35577415       0.61065795       0.06857191      -1.34135879       0.61065795       0.06857191      -1.34135879
H       -1.65816890      -0.40447390       0.88593226       0.18872495       0.19993260      -2.18202586       0.18872495       0.19993260      -2.18202586
H       -2.10370555       0.60205631      -0.55517360      -0.69945224      -1.89782684       0.49929467      -0.69945224      -1.89782684       0.49929467
H       -1.79526239      -1.15540392      -0.74500609      -0.53097039       2.00428784       1.33313755      -0.53097039       2.00428784       1.33313755
H        0.81424943      -1.31804550       1.08016700       0.10451101       0.45885989      -2.04004797       0.10451101       0.45885989      -2.04004797
H        1.98798560      -0.94196343      -0.21335455      -0.97299772      -1.44848822       0.64358224      -0.97299772      -1.44848822       0.64358224
H        0.66354593      -2.05044470      -0.55942285       1.05387359       0.68791032       1.31381031       1.05387359       0.68791032       1.31381031
14
Properties=species:S:1:pos:R:3:forces:R:3:gap_forces:R:3 energy=-4310.055764304875 name=tbu gap_energy=-4310.055764304875 config_type=start_5 pbc="F F F"
C        0.02693545       0.07399915      -0.44062913       0.26139387      -0.18703549      -1.05029274       0.26139387      -0.18703549      -1.05029274
C        0.44610022       1.37215125       0.27534196       1.46572504       4.93168738       1.47964028       1.46572504       4.93168738       1.47964028
C       -1.46603698      -0.23862980      -0.21558794      -5.32493563      -0.12404830       0.90783518      -5.32493563      -0.12404830       0.90783518
C        0.92659514      -1.11932173      -0.02626387       2.42468403      -4.29990904       1.19327823       2.42468403      -4.29990904       1.19327823
H        0.18712293       0.20754535      -1.53386138       0.41352558       0.31784802      -2.48071443       0.41352558       0.31784802      -2.48071443
H       -0.16592869       2.24536727      -0.08466676       2.14621532      -0.81623080       1.48382414       2.14621532      -0.81623080       1.48382414
H        1.51521178       1.61221890       0.09333279      -1.80985071       1.48681897       0.82438323      -1.80985071       1.48681897       0.82438323
H        0.32435846       1.27328408       1.37156913       0.29802128       0.27367589      -1.48895624       0.29802128       0.27367589      -1.48895624
H       -1.66773669      -0.37446012       0.88491826       0.35500238      -0.10963999      -2.24915106       0.35500238      -0.10963999      -2.24915106
H       -2.12271274       0.59756523      -0.56236334      -0.05051210      -2.14166208       0.77883137      -0.05051210      -2.14166208       0.77883137
H       -1.79380086      -1.13137723      -0.74652632      -1.15150787       1.04979591       0.82201957      -1.15150787       1.04979591       0.82201957
H        0.81667666      -1.32894199       1.06255721      -0.04260494       0.61255595      -1.83302772      -0.04260494       0.61255595      -1.83302772
H        1.97869207      -0.91884817      -0.21953631      -0.63085081      -1.70424742       0.41431184      -0.63085081      -1.70424742       0.41431184
H        0.64228528      -2.04796030      -0.55548905       1.64569455       0.71039099       1.19801836       1.64569455       0.71039099       1.19801836
14
Properties=species:S:1:pos:R:3:forces:R:3:gap_forces:R:3 energy=-4310.130584175057 name=tbu gap_energy=-4310.130584175057 config_type=start_6 pbc="F F F"
C        0.05082425       0.07669104      -0.45525649      -0.92537219      -0.19572700      -0.52190197      -0.92537219      -0.19572700      -0.52190197
C        0.45770948       1.38262380       0.26709950       1.29345489       3.64753574       2.20087136       1.29345489       3.64753574       2.20087136
C       -1.46376429      -0.24178525      -0.20831212      -4.40518013      -0.66828562       0.51454590      -4.40518013      -0.66828562       0.51454590
C        0.92447479      -1.11900054      -0.02455642       3.22143148      -3.31513267       1.75768298       3.22143148      -3.31513267       1.75768298
H        0.17588844       0.23265018      -1.53811176       0.57424016       0.53489955      -2.77981471       0.57424016       0.53489955      -2.77981471
H       -0.14786596       2.23297677      -0.07224229       1.53437809      -0.18383320       1.25783409       1.53437809      -0.18383320       1.25783409
H        1.50874349       1.61523229       0.08347912      -1.15250768       1.44066873       0.84420644      -1.15250768       1.44066873       0.84420644
H        0.32581737       1.26088319       1.38147377       0.09588604       0.43028948      -2.25214185       0.09588604       0.43028948      -2.25214185
H       -1.67414181      -0.40446581       0.88166071       0.62036056       0.28327916      -1.97697457       0.62036056       0.28327916      -1.97697457
H       -2.10715123       0.58589936      -0.55381023      -0.46137377      -1.84822357       0.61302527      -0.46137377      -1.84822357       0.61302527
H       -1.80091788      -1.14988176      -0.74215868      -1.05332737       1.43821169       1.06909768      -1.05332737       1.43821169       1.06909768
H        0.81697799      -1.31473550       1.08361675       0.05232384       0.27129682      -2.14086009       0.05232384       0.27129682      -2.14086009
H        1.99476867      -0.91220926      -0.19780904      -1.09623787      -2.01466304       0.47059468      -1.09623787      -2.01466304       0.47059468
H        0.63351482      -2.03484303      -0.53314630       1.70192395       0.17968394       0.94383479       1.70192395       0.17968394       0.94383479
14
Properties=species:S:1:pos:R:3:forces:R:3:gap_forces:R:3 energy=-4310.1048371690285 name=tbu gap_energy=-4310.1048371690285 config_type=start_7 pbc="F F F"
C        0.03062663       0.06973444      -0.44713731       0.86946870       0.39572512      -0.36870680       0.86946870       0.39572512      -0.36870680
C        0.48150484       1.37750100       0.26989080      -0.42785729       3.89816410       1.89190329      -0.42785729       3.89816410       1.89190329
C       -1.46506919      -0.20939106      -0.20839558      -4.06214776      -1.99252323      -0.17948520      -4.06214776      -1.99252323      -0.17948520
C        0.93472705      -1.12804408       0.00385645       1.30004952      -2.63447815      -0.45940907       1.30004952      -2.63447815      -0.45940907
H        0.17405401       0.22379970      -1.53325236       0.30991862       0.36739504      -2.60829658       0.30991862       0.36739504      -2.60829658
H       -0.16662126       2.24626925      -0.05235561       2.70153539      -0.85057446       1.25567370       2.70153539      -0.85057446       1.25567370
H        1.51816010       1.60081200       0.10732664      -0.82157176       1.56751383       0.51719007      -0.82157176       1.56751383       0.51719007
H        0.33371967       1.26061433       1.36693976       0.20316062       0.41737985      -1.59481530       0.20316062       0.41737985      -1.59481530
H       -1.66504395      -0.38941432       0.85706762      -0.05712091       0.27330567      -1.15743878      -0.05712091       0.27330567      -1.15743878
H       -2.10386606       0.61586244      -0.56730000      -0.42747256      -2.17698931       0.57445476      -0.42747256      -2.17698931       0.57445476
H       -1.77970874      -1.15673479      -0.73882111      -1.15205475       2.32697595       1.16160440      -1.15205475       2.32697595       1.16160440
H        0.81190593      -1.32887801       1.06060230       0.23269134       0.11449456      -1.02633765       0.23269134       0.11449456      -1.02633765
H        1.97839946      -0.93286143      -0.23658630      -0.57158346      -1.99317327       0.65180812      -0.57158346      -1.99317327       0.65180812
H        0.63205318      -2.03075270      -0.56139350       1.90298431       0.28678432       1.34185504       1.90298431       0.28678432       1.34185504
14
Properties=species:S:1:pos:R:3:forces:R:3:gap_forces:R:3 energy=-4310.087343398309 name=tbu gap_energy=-4310.087343398309 config_type=start_8 pbc="F F F"
C        0.03514417       0.06335404      -0.44659398      -0.17594956       0.57095259      -0.30738793      -0.17594956       0.57095259      -0.30738793
C        0.45702902       1.37571151       0.28062004       1.00175815       4.20365162       1.83152370       1.00175815       4.20365162       1.83152370
C       -1.47445483      -0.22577113      -0.21437676      -4.67439912      -1.38197068       0.14602869      -4.67439912      -1.38197068       0.14602869
C        0.91872421      -1.11667703       0.01476939       2.67933369      -4.38618272      -1.28029180       2.67933369      -4.38618272      -1.28029180
H        0.16817579       0.21610942      -1.52979540       0.32843001       0.27521948      -2.96246096       0.32843001       0.27521948      -2.96246096
H       -0.15645024       2.24194772      -0.06641249       1.98071444      -0.45385377       1.29662556       1.98071444      -0.45385377       1.29662556
H        1.51410881       1.62818075       0.09543908      -1.40654458       1.11520225       0.82345358      -1.40654458       1.11520225       0.82345358
H        0.33102636       1.25748864       1.38705707       0.06424702       0.55035650      -1.89086870       0.06424702       0.55035650      -1.89086870
H       -1.66760864      -0.38234283       0.86553500       0.12033220       0.13485475      -1.50291162       0.12033220       0.13485475      -1.50291162
H       -2.12406653       0.60575797      -0.56149399      -0.01423302      -2.19959980       0.62246450      -0.01423302      -2.19959980       0.62246450
H       -1.80161616      -1.16239864      -0.73763310      -0.79830421       2.14316131       1.12788052      -0.79830421       2.14316131       1.12788052
H        0.80714178      -1.31894648       1.05674407      -0.03988964      -0.16903300      -0.38104101      -0.03988964      -0.16903300      -0.38104101
H        1.98118063      -0.91720357      -0.20080953      -1.13505392      -2.01285162       0.51590004      -1.13505392      -2.01285162       0.51590004
H        0.63385895      -2.06812099      -0.55317131       2.06955853       1.61009309       1.96108544       2.06955853       1.61009309       1.96108544
14
Properties=species:S:1:pos:R:3:forces:R:3:gap_forces:R:3 energy=-4310.249393490832 name=tbu gap_energy=-4310.249393490832 config_type=start_9 pbc="F F F"
C        0.04174730       0.06589964      -0.44649161      -0.27130026       0.63475410      -0.73754459      -0.27130026       0.63475410      -0.73754459
C        0.46573274       1.38824521       0.27050005       0.89505723       2.15476412       1.41118086       0.89505723       2.15476412       1.41118086
C       -1.47642622      -0.21938153      -0.21061364      -2.75414728      -2.16090384       0.26209442      -2.75414728      -2.16090384       0.26209442
C        0.93377352      -1.13485423      -0.03279685       1.07173930      -1.78586689       1.20679404       1.07173930      -1.78586689       1.20679404
H        0.18481147       0.21993307      -1.53902006       0.56910083       0.16132171      -2.26111968       0.56910083       0.16132171      -2.26111968
H       -0.15879765       2.22805980      -0.04687410       1.81452779       0.18421897       0.97209085       1.81452779       0.18421897       0.97209085
H        1.51879197       1.61930478       0.07904811      -1.52402264       1.34882372       0.94969789      -1.52402264       1.34882372       0.94969789
H        0.32462780       1.29295677       1.36512658       0.52150212       0.06365882      -1.64045101       0.52150212       0.06365882      -1.64045101
H       -1.68075399      -0.38487489       0.87354924       0.24770961       0.05388502      -1.89831812       0.24770961       0.05388502      -1.89831812
H       -2.11994094       0.59037812      -0.56085890      -0.65138824      -1.57894765       0.57098276      -0.65138824      -1.57894765       0.57098276
H       -1.78467274      -1.15157722      -0.76016500      -1.17719713       2.07468859       1.32323677      -1.17719713       2.07468859       1.32323677
H        0.81241650      -1.32021272       1.05909448       0.15900993       0.27506386      -1.81800948       0.15900993       0.27506386      -1.81800948
H        1.98366995      -0.91583299      -0.21689734      -0.60699691      -2.06604874       0.32417901      -0.60699691      -2.06604874       0.32417901
H        0.63842220      -2.04991283      -0.57094920       1.70640565       0.64058821       1.33518629       1.70640565       0.64058821       1.33518629
14
Properties=species:S:1:pos:R:3:forces:R:3:gap_forces:R:3 energy=-4310.138568917617 name=tbu gap_energy=-4310.138568917617 config_type=start_10 pbc="F F F"
C        0.02562092       0.08933537      -0.44223914       0.04818881      -0.96568029      -0.53285586       0.04818881      -0.96568029      -0.53285586
C        0.45346793       1.38361292       0.27325153       1.34143157       3.59103413       1.83919527       1.34143157       3.59103413       1.83919527
C       -1.47621238      -0.24566700      -0.21525551      -4.29824778       0.00565222       0.60643967      -4.29824778       0.00565222       0.60643967
C        0.90869463      -1.12769511      -0.00556027       3.02111442      -2.99789669       0.35958792       3.02111442      -2.99789669       0.35958792
H        0.16594182       0.22780098      -1.52260790       0.29326052       0.59943189      -2.84798781       0.29326052       0.59943189      -2.84798781
H       -0.15045861       2.25045099      -0.04610792       1.82652358      -0.32598858       1.15587259       1.82652358      -0.32598858       1.15587259
H        1.52983599       1.59875268       0.09204673      -1.96532925       1.28806715       0.83387842      -1.96532925       1.28806715       0.83387842
H        0.32037929       1.26423747       1.37610128       0.33326299       0.58719758      -1.66371584       0.33326299       0.58719758      -1.66371584
H       -1.67116352      -0.39659361       0.86772013       0.42684426      -0.01951708      -1.69205088       0.42684426      -0.01951708      -1.69205088
H       -2.11848300       0.58962763      -0.53703661      -0.33414978      -1.98092823       0.46839248      -0.33414978      -1.98092823       0.46839248
H       -1.78870804      -1.15223167      -0.74276203      -1.00547516       1.43639150       0.90027846      -1.00547516       1.43639150       0.90027846
H        0.82223240      -1.31111496       1.08008582      -0.13842476      -0.01831010      -1.42306080      -0.13842476      -0.01831010      -1.42306080
H        1.99198918      -0.92570371      -0.21507440      -1.47218878      -2.00555994       0.53767521      -1.47218878      -2.00555994       0.53767521
H        0.63512643      -2.06030487      -0.55329033       1.92318936       0.80610643       1.45835116       1.92318936       0.80610643       1.45835116
14
Properties=species:S:1:pos:R:3:forces:R:3:gap_forces:R:3 energy=-4310.173438499781 name=tbu gap_energy=-4310.173438499781 config_type=start_11 pbc="F F F"
C        0.04458356       0.06170038      -0.45099781      -0.36278468       0.91126656       0.23415025      -0.36278468       0.91126656       0.23415025
C        0.46897899       1.39081334       0.28649038      -0.14362607       1.63475253       0.57929421      -0.14362607       1.63475253       0.57929421
C       -1.46742229      -0.25798321      -0.20014515      -3.80719136       1.06829093      -0.26659518      -3.80719136       1.06829093      -0.26659518
C        0.90932780      -1.12064145      -0.00836119       3.13320245      -3.45695385       0.55844623       3.13320245      -3.45695385       0.55844623
H        0.17606490       0.22404851      -1.53105793       0.45613263       0.52535793      -2.80943334       0.45613263       0.52535793      -2.80943334
H       -0.14050068       2.24625520      -0.06377412       1.75288665      -0.50035796       1.28031018       1.75288665      -0.50035796       1.28031018
H        1.51745248       1.60623067       0.09778605      -1.12909043       1.61088430       0.75374619      -1.12909043       1.61088430       0.75374619
H        0.31838283       1.27047125       1.36757456       0.40670615       0.42724478      -1.23733114       0.40670615       0.42724478      -1.23733114
H       -1.67054171      -0.38760083       0.87829817      -0.02994680      -0.05091692      -1.49295666      -0.02994680      -0.05091692      -1.49295666
H       -2.11715550       0.61131642      -0.54195492       0.05309287      -2.74892210       0.83212815       0.05309287      -2.74892210       0.83212815
H       -1.79449524      -1.14849206      -0.76640286      -0.93374844       1.51642955       1.15895549      -0.93374844       1.51642955       1.15895549
H        0.79542236      -1.32877641       1.06067370       0.14150305       0.51870988      -1.24552633       0.14150305       0.51870988      -1.24552633
H        1.97979580      -0.91909174      -0.19714031      -1.02462013      -1.99882578       0.51896645      -1.02462013      -1.99882578       0.51896645
H        0.64656740      -2.03846414      -0.55557277       1.48748411       0.54304015       1.13584549       1.48748411       0.54304015       1.13584549
14
Properties=species:S:1:pos:R:3:forces:R:3:gap_forces:R:3 energy=-4310.138013503436 name=tbu gap_energy=-4310.138013503436 config_type=start_12 pbc="F F F"
C        0.03354001       0.08485000      -0.45147408      -0.16973808      -0.57950597      -0.82911905      -0.16973808      -0.57950597      -0.82911905
C        0.45067385       1.38135530       0.28010274       1.74620644       3.61676715       1.40844517       1.74620644       3.61676715       1.40844517
C       -1.48035264      -0.23324901      -0.22390640      -2.67737664      -0.79687110       1.18583120      -2.67737664      -0.79687110       1.18583120
C        0.92496964      -1.12540317      -0.01189829       1.48921664      -2.49423020       0.52812903       1.48921664      -2.49423020       0.52812903
H        0.15787133       0.22547789      -1.55168187       0.20410068       0.17880572      -2.44683743       0.20410068       0.17880572      -2.44683743
H       -0.14949599       2.24511280      -0.06278031       1.80550137      -0.05138729       1.24471793       1.80550137      -0.05138729       1.24471793
H        1.53245709       1.63113486       0.08207159      -2.32292412       0.89120300       1.22046695      -2.32292412       0.89120300       1.22046695
H        0.32169796       1.27686644       1.38153488       0.62714149       0.08100306      -1.75823858       0.62714149       0.08100306      -1.75823858
H       -1.65051581      -0.38223856       0.87875399      -0.05842491       0.06864836      -2.25768916      -0.05842491       0.06864836      -2.25768916
H       -2.09971804       0.58489879      -0.56808914      -0.70015536      -1.40901277       0.49163426      -0.70015536      -1.40901277       0.49163426
H       -1.77610785      -1.14852001      -0.74613546      -1.40169682       1.29893689       0.82653697      -1.40169682       1.29893689       0.82653697