14
Properties=species:S:1:pos:R:3:forces:R:3:gap_forces:R:3 energy=-4309.091222196672 name=tbu gap_energy=-4309.091222196672 config_type=start_0 pbc="F F F"
C        0.02685239       0.12398268      -0.43300928       0.76987281      -0.93317756      -0.02317042       0.76987281      -0.93317756      -0.02317042
C        0.44595052       1.31783238       0.24809844      -0.00582747       5.00963057       2.41354982      -0.00582747       5.00963057       2.41354982
C       -1.46566465      -0.19954628      -0.20614717      -5.84187103      -1.31068043       0.36725434      -5.84187103      -1.31068043       0.36725434
C        0.91604704      -1.09693582       0.00796017       3.09103146      -4.58249347       0.32170967       3.09103146      -4.58249347       0.32170967
H        0.14567440       0.22576222      -1.51743828      -0.12524655       0.48316628      -2.61684978      -0.12524655       0.48316628      -2.61684978
H       -0.17729025       2.21466296      -0.04818314       2.13062557      -0.79032009       0.86963996       2.13062557      -0.79032009       0.86963996
H        1.46418493       1.52211077       0.08811145       0.13821681       0.93878259      -0.16460066       0.13821681       0.93878259      -0.16460066
H        0.36623453       1.31705395       1.37137442      -0.64268371      -0.74127432      -1.25208643      -0.64268371      -0.74127432      -1.25208643
H       -1.69027672      -0.42025057       0.85502382       0.49965037       0.48153487      -1.15771768       0.49965037       0.48153487      -1.15771768
H       -2.08176400       0.63864456      -0.51858864      -0.71914533      -1.86966623      -0.01333679      -0.71914533      -1.86966623      -0.01333679
H       -1.77415801      -1.14824450      -0.73126256      -0.62151980       2.43176062       0.99045105      -0.62151980       2.43176062       0.99045105
H        0.83157422      -1.38380758       1.09743972      -0.14013450       0.74939834      -2.25939176      -0.14013450       0.74939834      -2.25939176
H        1.98114899      -0.88146308      -0.23610420      -0.79352505      -1.83972333       0.41825593      -0.79352505      -1.83972333       0.41825593
H        0.61724125      -2.05651546      -0.58660324       2.26055642       1.97306216       2.10629274       2.26055642       1.97306216       2.10629274
14
Properties=species:S:1:pos:R:3:forces:R:3:gap_forces:R:3 energy=-4309.829133736186 name=tbu gap_energy=-4309.829133736186 config_type=start_1 pbc="F F F"
C       -0.00317523       0.05447317      -0.41075125       0.09245617       1.21733913      -1.31190019       0.09245617       1.21733913      -1.31190019
C        0.46349975       1.40302974       0.25596190       0.28513245       2.09753063       2.31496166       0.28513245       2.09753063       2.31496166
C       -1.45314075      -0.24696994      -0.18283815      -3.88597972       0.64080471      -2.26364995      -3.88597972       0.64080471      -2.26364995
C        0.91648996      -1.11610059      -0.03277312       3.88318880      -4.00103004      -0.01354710       3.88318880      -4.00103004      -0.01354710
H        0.16107568       0.19119228      -1.51399801       0.12227042       0.31145417      -2.16646476       0.12227042       0.31145417      -2.16646476
H       -0.17322443       2.23739020      -0.07375700       2.16333520       0.25074626       0.72330319       2.16333520       0.25074626       0.72330319
H        1.51393908       1.67132273       0.10483759      -1.57384881       0.93771242       0.37234135      -1.57384881       0.93771242       0.37234135
H        0.33336921       1.25823044       1.34603056       0.55362927       0.74160203      -0.91906962       0.55362927       0.74160203      -0.91906962
H       -1.65104294      -0.40112068       0.81740018      -0.47177919      -0.10799542       0.79728001      -0.47177919      -0.10799542       0.79728001
H       -2.09039503       0.63328307      -0.51839701      -0.41675616      -3.33051539       0.45773415      -0.41675616      -3.33051539       0.45773415
H       -1.78919722      -1.13725121      -0.73640598      -1.32760602       1.97204734       0.94234322      -1.32760602       1.97204734       0.94234322
H        0.81831976      -1.33964757       1.02776966       0.40734411       0.39658833      -0.67808116       0.40734411       0.39658833      -0.67808116
H        2.00565751      -0.88172896      -0.22128439      -1.92704886      -2.19524697       0.37945528      -1.92704886      -2.19524697       0.37945528
H        0.63506407      -2.04841357      -0.59920994       2.09566232       1.06896281       1.36529392       2.09566232       1.06896281       1.36529392
14
Properties=species:S:1:pos:R:3:forces:R:3:gap_forces:R:3 energy=-4309.756581007905 name=tbu gap_energy=-4309.756581007905 config_type=start_2 pbc="F F F"
C        0.03273541       0.06848005      -0.44242681       0.98127564      -0.11886158       0.68309292       0.98127564      -0.11886158       0.68309292
C        0.42989040       1.31457556       0.27188410       2.81948724       7.08521950       0.20036976       2.81948724       7.08521950       0.20036976
C       -1.45064049      -0.24063141      -0.21961750      -6.17343278      -2.10988341       0.77593293      -6.17343278      -2.10988341       0.77593293
C        0.94293025      -1.15915448      -0.04591258       1.91165213      -2.63931746       1.97562519       1.91165213      -2.63931746       1.97562519
H        0.18822627       0.21466378      -1.50192353       0.80905064       0.21958759      -3.26136930       0.80905064       0.21958759      -3.26136930
H       -0.19808989       2.22744999      -0.04500638       2.74479609      -1.43067086       1.12914054       2.74479609      -1.43067086       1.12914054
H        1.55478094       1.64053000       0.10527166      -3.57756422      -0.28335745       0.64393331      -3.57756422      -0.28335745       0.64393331
H        0.36247711       1.28772452       1.34856029      -0.55753373      -0.16165399      -0.40241155      -0.55753373      -0.16165399      -0.40241155
H       -1.72892841      -0.38585819       0.85979528       1.96465302      -0.26025471      -1.61914456       1.96465302      -0.26025471      -1.61914456
H       -2.13143354       0.55913060      -0.51345745      -0.45373898      -1.14216731      -0.05928013      -0.45373898      -1.14216731      -0.05928013
H       -1.80658176      -1.16459336      -0.74857561      -0.15160869       1.68804332       1.11858688      -0.15160869       1.68804332       1.11858688
H        0.81933480      -1.30989742       1.03169032      -0.39031885      -0.49363500      -1.55109972      -0.39031885      -0.49363500      -1.55109972
H        1.97451415      -0.96964007      -0.19104610      -0.29099194      -0.52394971      -0.09756000      -0.29099194      -0.52394971      -0.09756000
H        0.69204187      -2.05433730      -0.53720209       0.36427443       0.17090107       0.46418373       0.36427443       0.17090107       0.46418373
14
Properties=species:S:1:pos:R:3:forces:R:3:gap_forces:R:3 energy=-4309.575769867386 name=tbu gap_energy=-4309.575769867386 config_type=start_3 pbc="F F F"
C        0.03066550       0.02002302      -0.44297362       1.38605655       5.21274684       1.22588198       1.38605655       5.21274684       1.22588198
C        0.44154880       1.39161021       0.33154801       3.15209022      -2.01663743      -3.37536319       3.15209022      -2.01663743      -3.37536319
C       -1.45770474      -0.24214233      -0.20770431      -3.37478952      -0.83121043       1.17512991      -3.37478952      -0.83121043       1.17512991
C        0.96365065      -1.13466890      -0.05175236       0.93680435      -0.46539386       1.69782502       0.93680435      -0.46539386       1.69782502
H        0.19313094       0.22474756      -1.54102202       0.74032353       0.14231403      -1.67085062       0.74032353       0.14231403      -1.67085062
H       -0.16141731       2.24890117      -0.07167041       1.71056565      -0.63810922       1.50091185       1.71056565      -0.63810922       1.50091185
H        1.58383272       1.60566696       0.04582798      -4.12253018       1.01131541       1.60579391      -4.12253018       1.01131541       1.60579391
H        0.32394049       1.26359387       1.41721446       0.44508152      -0.00239669      -0.93610515       0.44508152      -0.00239669      -0.93610515
H       -1.67506840      -0.39377311       0.88071719       0.48111101      -0.07851161      -2.25841609       0.48111101      -0.07851161      -2.25841609
H       -2.11458403       0.57909163      -0.55907590       0.03446827      -1.65080721       0.88916840       0.03446827      -1.65080721       0.88916840
H       -1.77465970      -1.12674340      -0.74412065      -1.75994896       0.81982123       0.62539724      -1.75994896       0.81982123       0.62539724
H        0.87542098      -1.35097313       1.03441162       0.32572228       0.95639207      -1.67345580       0.32572228       0.95639207      -1.67345580
H        2.03944017      -0.90985847      -0.27010843      -2.21139143      -1.59822754       1.04169932      -2.21139143      -1.59822754       1.04169932
H        0.62230422      -2.01071559      -0.53961171       2.25643671      -0.86129556       0.15238322       2.25643671      -0.86129556       0.15238322
14
Properties=species:S:1:pos:R:3:forces:R:3:gap_forces:R:3 energy=-4309.2461740219105 name=tbu gap_energy=-4309.2461740219105 config_type=start_4 pbc="F F F"
C        0.02203879       0.06964753      -0.43204359      -0.50264564       0.16623046      -1.52613507      -0.50264564       0.16623046      -1.52613507
C        0.43472636       1.33274563       0.31020845       2.00945094       5.27026578      -0.69395481       2.00945094       5.27026578      -0.69395481
C       -1.43377683      -0.21652662      -0.25745348      -5.62825264      -1.90728152       2.62679827      -5.62825264      -1.90728152       2.62679827
C        0.93663243      -1.07927497      -0.00825906       2.66113343      -6.75797743       2.69420999       2.66113343      -6.75797743       2.69420999
H        0.17923598       0.24937140      -1.53507459       0.21327828       0.33578753      -2.41201360       0.21327828       0.33578753      -2.41201360
H       -0.18131911       2.18535954      -0.12730691       2.33528284      -0.29452276       1.87392092       2.33528284      -0.29452276       1.87392092
H        1.49896317       1.63141655       0.11635085      -1.97261124       0.29945463       0.88923064      -1.97261124       0.29945463       0.88923064
H        0.30878387       1.22658531       1.36140504      -0.17069489      -0.53321248      -0.65562915      -0.17069489      -0.53321248      -0.65562915
H       -1.70541820      -0.40140466       0.87164794       1.20542341      -0.59648450      -2.89371996       1.20542341      -0.59648450      -2.89371996
H       -2.12286538       0.55955722      -0.51216155      -1.03469430      -0.87609489      -0.36634688      -1.03469430      -0.87609489      -0.36634688
H       -1.78817311      -1.16236705      -0.76621605       0.01941935       2.21429531       1.30707690       0.01941935       2.21429531       1.30707690
H        0.78314127      -1.37222472       1.10746906      -0.28358676       0.95694919      -2.88262238      -0.28358676       0.95694919      -2.88262238
H        2.00251715      -0.94994581      -0.15374346      -1.03086332      -1.06540487       0.19147151      -1.03086332      -1.06540487       0.19147151
H        0.63935167      -2.10533660      -0.51764547       2.17936055       2.78799557       1.84771361       2.17936055       2.78799557       1.84771361
14
Properties=species:S:1:pos:R:3:forces:R:3:gap_forces:R:3 energy=-4309.796544359615 name=tbu gap_energy=-4309.796544359615 config_type=start_5 pbc="F F F"
C        0.07783838       0.07197830      -0.42195499      -4.26975103      -0.40695202      -0.66510304      -4.26975103      -0.40695202      -0.66510304
C        0.42132585       1.39085741       0.27389295       6.00077656       2.93794708       3.64600494       6.00077656       2.93794708       3.64600494
C       -1.49528790      -0.20319044      -0.22324371      -0.55430656      -0.95569766       1.16793577      -0.55430656      -0.95569766       1.16793577
C        0.91100171      -1.10385646      -0.01410703       1.50332948      -4.83404207      -0.00217108       1.50332948      -4.83404207      -0.00217108
H        0.17470318       0.21522507      -1.51514739       0.74308466      -0.02624581      -2.51886370       0.74308466      -0.02624581      -2.51886370
H       -0.14260891       2.18456746      -0.05483975       0.33991959       2.19062400       0.46083705       0.33991959       2.19062400       0.46083705
H        1.55080964       1.63117076       0.11969592      -3.45444551       0.12637379       1.39576820      -3.45444551       0.12637379       1.39576820
H        0.33671009       1.31132096       1.43719024       0.51463341      -0.01878163      -3.65850064       0.51463341      -0.01878163      -3.65850064
H       -1.66911321      -0.34823194       0.83216897      -0.54024131      -0.49094460      -1.01300054      -0.54024131      -0.49094460      -1.01300054
H       -2.18779535       0.57764058      -0.45239372      -0.40254941      -1.58269022       0.02739957      -0.40254941      -1.58269022       0.02739957
H       -1.77909451      -1.09017405      -0.74860032      -1.21161985       1.42039973       0.38753164      -1.21161985       1.42039973       0.38753164
H        0.80057788      -1.36429075       1.06133572      -0.06031480       0.85990187      -1.78347830      -0.06031480       0.85990187      -1.78347830
H        1.96387932      -0.97498556      -0.22031009      -0.63818631      -0.59713837       0.75159719      -0.63818631      -0.59713837       0.75159719
H        0.61517012      -2.06614688      -0.58291349       2.02967109       1.37724592       1.80404294       2.02967109       1.37724592       1.80404294
14
Properties=species:S:1:pos:R:3:forces:R:3:gap_forces:R:3 energy=-4309.028685206323 name=tbu gap_energy=-4309.028685206323 config_type=start_6 pbc="F F F"
C       -0.00955561       0.08174184      -0.47417997       2.36073911      -2.20476266       1.02675265       2.36073911      -2.20476266       1.02675265
C        0.45426934       1.32511566       0.29836137       2.38570646       6.45433904      -2.45597520       2.38570646       6.45433904      -2.45597520
C       -1.47145951      -0.25118046      -0.27756861      -5.03955364      -0.15008757       2.32730379      -5.03955364      -0.15008757       2.32730379
C        0.95221002      -1.10619537      -0.03089560      -0.65720382      -4.55354579       0.39668929      -0.65720382      -4.55354579       0.39668929
H        0.19069399       0.20198158      -1.51314892       0.19083284       0.21407621      -3.96058128       0.19083284       0.21407621      -3.96058128
H       -0.17446413       2.22845898      -0.05148318       3.01022747      -0.91969171       1.53719604       3.01022747      -0.91969171       1.53719604
H        1.53325907       1.64782885       0.05357303      -3.22919051       0.43948364       1.22923601      -3.22919051       0.43948364       1.22923601
H        0.34252961       1.25326299       1.31211531       0.09688601       0.72427084       1.86862269       0.09688601       0.72427084       1.86862269
H       -1.67016598      -0.36361540       0.86291438       0.60468797      -1.29890992      -2.52135643       0.60468797      -1.29890992      -2.52135643
H       -2.10499394       0.65493629      -0.51494737      -0.17173496      -2.74564429      -0.21144690      -0.17173496      -2.74564429      -0.21144690
H       -1.81727787      -1.18511936      -0.76883726      -0.52135351       2.12277859       1.14477713      -0.52135351       2.12277859       1.14477713
H        0.83627219      -1.29803902       1.08993984      -1.07391222      -0.05843237      -2.55863036      -1.07391222      -0.05843237      -2.55863036
H        2.00986853      -0.91698264      -0.18013100      -0.55298526      -1.14611995      -0.11907407      -0.55298526      -1.14611995      -0.11907407
H        0.61479003      -2.10297288      -0.58701627       2.59685407       3.12224594       2.29648665       2.59685407       3.12224594       2.29648665
14
Properties=species:S:1:pos:R:3:forces:R:3:gap_forces:R:3 energy=-4309.780492061075 name=tbu gap_energy=-4309.780492061075 config_type=start_7 pbc="F F F"
C        0.04033093       0.13042187      -0.45223223       3.21126907      -4.96289778       1.37867034       3.21126907      -4.96289778       1.37867034
C        0.46948740       1.36500893       0.28079721       0.62837188      -0.17370230       0.71042593       0.62837188      -0.17370230       0.71042593
C       -1.46003727      -0.22328946      -0.18850561      -3.55459405      -1.01400130       0.37459170      -3.55459405      -1.01400130       0.37459170
C        0.95589297      -1.16697692      -0.04992922      -3.18368877       3.64564642       1.68822231      -3.18368877       3.64564642       1.68822231
H        0.19127474       0.17977619      -1.53204351       0.80176606       0.55690602      -2.88108210       0.80176606       0.55690602      -2.88108210
H       -0.14333620       2.15091594      -0.04102577       1.33351012       0.93219483       0.64185534       1.33351012       0.93219483       0.64185534
H        1.49998953       1.60594331       0.10980725      -1.15956845       1.72023810       1.17198114      -1.15956845       1.72023810       1.17198114
H        0.32681407       1.21129311       1.34420381       1.07815502       0.63521619      -1.02775242       1.07815502       0.63521619      -1.02775242
H       -1.65546683      -0.38483156       0.92607966       0.15250661      -0.66791361      -2.20595082       0.15250661      -0.66791361      -2.20595082
H       -2.09052094       0.61496455      -0.59331502      -0.55624360      -1.95870287       0.69757232      -0.55624360      -1.95870287       0.69757232
H       -1.80761640      -1.15263394      -0.73682726      -0.41566868       1.83034765       1.49691582      -0.41566868       1.83034765       1.49691582
H        0.81670979      -1.36578580       1.07098303      -0.08630158       0.56087780      -3.11159611      -0.08630158       0.56087780      -3.11159611
H        1.94500867      -0.89811695      -0.20695106       1.24646706      -2.18286847      -0.10072810       1.24646706      -2.18286847      -0.10072810
H        0.66492352      -2.08831640      -0.51158532       0.50401932       1.07865931       1.16687466       0.50401932       1.07865931       1.16687466
14
Properties=species:S:1:pos:R:3:forces:R:3:gap_forces:R:3 energy=-4309.586646606119 name=tbu gap_energy=-4309.586646606119 config_type=start_8 pbc="F F F"
C        0.02723047       0.03544694      -0.48506028       1.01055573       1.82375827       1.40819102       1.01055573       1.82375827       1.40819102
C        0.47091059       1.33450958       0.28883045       1.85582997       4.90195022      -1.74738550       1.85582997       4.90195022      -1.74738550
C       -1.45760260      -0.23346341      -0.19195561      -6.26975495      -0.78874295      -3.52392402      -6.26975495      -0.78874295      -3.52392402
C        0.92684661      -1.12951541      -0.01997837       1.58034864      -5.52904681       2.44583160       1.58034864      -5.52904681       2.44583160
H        0.18738999       0.26098377      -1.53266754       0.30097291       1.26307487      -3.61214029       0.30097291       1.26307487      -3.61214029
H       -0.13647914       2.21784532      -0.09359598       2.73426380      -1.34676919       1.41559221       2.73426380      -1.34676919       1.41559221
H        1.54466714       1.57115327       0.13071163      -2.41195759       1.28292110       0.41646899      -2.41195759       1.28292110       0.41646899
H        0.32054455       1.20274906       1.29207364       0.08997727       1.20876496       1.62016707       0.08997727       1.20876496       1.62016707
H       -1.71713048      -0.37099308       0.81063967       0.28801625      -1.23601402       0.68087377       0.28801625      -1.23601402       0.68087377
H       -2.08700438       0.64614370      -0.57680395      -0.22924317      -3.31519937       0.56367131      -0.22924317      -3.31519937       0.56367131
H       -1.82736137      -1.16475300      -0.74953755      -0.00437190       2.53680216       2.04278289      -0.00437190       2.53680216       2.04278289
H        0.79622389      -1.33968680       1.12513739      -0.65066686      -0.14244541      -3.61983899      -0.65066686      -0.14244541      -3.61983899
H        1.95437254      -0.97572290      -0.19889404       1.36917872      -1.39007044       0.17628090       1.36917872      -1.39007044       0.17628090
H        0.67929607      -2.05915240      -0.57384834       0.33685116       0.73101660       1.73342904       0.33685116       0.73101660       1.73342904
14
Properties=species:S:1:pos:R:3:forces:R:3:gap_forces:R:3 energy=-4309.60751799449 name=tbu gap_energy=-4309.60751799449 config_type=start_9 pbc="F F F"
C        0.06606280       0.09338030      -0.45953640      -1.48818881      -1.10431077       1.50387777      -1.48818881      -1.10431077       1.50387777
C        0.48534477       1.37785736       0.29125241       0.96110747       3.21599454       1.27021666       0.96110747       3.21599454       1.27021666
C       -1.46704404      -0.20895263      -0.22998106      -2.93424046      -2.83283320       0.34436226      -2.93424046      -2.83283320       0.34436226
C        0.98314024      -1.11640126      -0.07599844      -3.86693389      -2.16719649       2.25816957      -3.86693389      -2.16719649       2.25816957
H        0.15893701       0.25438575      -1.47669080       0.83017977       0.76543313      -3.88062403       0.83017977       0.76543313      -3.88062403
H       -0.14255015       2.24804612      -0.00737023       2.11918966      -0.28590523       1.14694579       2.11918966      -0.28590523       1.14694579
H        1.54220237       1.61196221       0.07434361      -1.56734929       1.88142300       1.06589913      -1.56734929       1.88142300       1.06589913
H        0.33481642       1.26840922       1.38184527       0.10771882       1.06488584      -1.33757727       0.10771882       1.06488584      -1.33757727
H       -1.75494578      -0.40834230       0.86177843       2.14304106       0.57960915      -3.06567282       2.14304106       0.57960915      -3.06567282
H       -2.08563836       0.64580240      -0.58364411      -0.12263086      -2.24261778       0.59821233      -0.12263086      -2.24261778       0.59821233
H       -1.84555437      -1.15870993      -0.75303890       0.60186282       2.45154509       1.79780268       0.60186282       2.45154509       1.79780268
H        0.85731262      -1.30079444       1.05256726       0.39422790      -1.03085620      -2.98848853       0.39422790      -1.03085620      -2.98848853
H        1.94748373      -0.87182106      -0.27218177       2.08786065      -1.40870486      -0.29832432       2.08786065      -1.40870486      -0.29832432
H        0.69421572      -2.04448980      -0.56767781       0.73415519       1.11353379       1.58520079       0.73415519       1.11353379       1.58520079
14
Properties=species:S:1:pos:R:3:forces:R:3:gap_forces:R:3 energy=-4309.907945195276 name=tbu gap_energy=-4309.907945195276 config_type=start_10 pbc="F F F"
C        0.01696648       0.06810985      -0.38268581       1.17185483       0.49888228      -3.29816079       1.17185483       0.49888228      -3.29816079
C        0.47231167       1.37322458       0.27827873       0.27609738       4.76547806       1.84500978       0.27609738       4.76547806       1.84500978
C       -1.48971916      -0.20276753      -0.24965805      -0.95525406      -1.59446989       2.18436293      -0.95525406      -1.59446989       2.18436293
C        0.95284265      -1.10811931      -0.08130753      -0.68840153      -3.87030184       1.47707759      -0.68840153      -3.87030184       1.47707759
H        0.19786043       0.19516448      -1.53629091      -0.08374317      -0.00994009      -0.92189492      -0.08374317      -0.00994009      -0.92189492
H       -0.16722721       2.27123798      -0.05039094       2.71299614      -1.07634687       1.44473333       2.71299614      -1.07634687       1.44473333
H        1.53764785       1.67919384       0.08235687      -2.25593730       0.34680623       0.81372124      -2.25593730       0.34680623       0.81372124
H        0.33027232       1.25402893       1.38863775       0.10566433       1.20664254      -1.67170501       0.10566433       1.20664254      -1.67170501
H       -1.68608132      -0.38952394       0.84387505       0.72782250       0.48913808      -2.37687651       0.72782250       0.48913808      -2.37687651
H       -2.09061819       0.60953271      -0.59921067      -0.49915700      -1.09617398       0.81032295      -0.49915700      -1.09617398       0.81032295
H       -1.80773916      -1.07620503      -0.73940861      -1.06751128      -0.19734820       0.19822016      -1.06751128      -0.19734820       0.19822016
H        0.85936913      -1.26343538       1.02257008      -0.52183242      -0.71353208      -2.11215182      -0.52183242      -0.71353208      -2.11215182
H        1.97585062      -0.91256650      -0.28866520       0.24597045      -0.70525066       0.02723729       0.24597045      -0.70525066       0.02723729
H        0.66462814      -2.07757179      -0.58423814       0.83143114       1.95641644       1.58010377       0.83143114       1.95641644       1.58010377
14
Properties=species:S:1:pos:R:3:forces:R:3:gap_forces:R:3 energy=-4308.937792126989 name=tbu gap_energy=-4308.937792126989 config_type=start_11 pbc="F F F"
C        0.00544014       0.03413033      -0.52831128       0.49473536       6.17001582       6.07738294       0.49473536       6.17001582       6.07738294
C        0.48824296       1.39499248       0.31199885      -3.65097303      -1.00680464      -2.50119436      -3.65097303      -1.00680464      -2.50119436
C       -1.42339725      -0.20132299      -0.25592066      -5.69138771      -4.17496116       0.85912551      -5.69138771      -4.17496116       0.85912551
C        0.89725384      -1.10447631       0.01611901       2.64121297      -5.00705447      -2.26855345       2.64121297      -5.00705447      -2.26855345
H        0.15232101       0.18588993      -1.54633216       0.36476606       0.28942478      -4.92829309       0.36476606       0.28942478      -4.92829309
H       -0.15677154       2.24026386      -0.02418107       3.00126491      -0.93969780       1.93594440       3.00126491      -0.93969780       1.93594440
H        1.46235470       1.59159938       0.12222007       0.37455942       2.25931481       0.78679455       0.37455942       2.25931481       0.78679455
H        0.35732791       1.25969687       1.34867138      -0.55412513       0.66236330      -1.50734073      -0.55412513       0.66236330      -1.50734073
H       -1.63513793      -0.43659489       0.88034665       0.69291448       1.50840878      -3.30196374       0.69291448       1.50840878      -3.30196374
H       -2.11715544       0.61102183      -0.57988948       0.63406197      -2.40856949       0.71118816       0.63406197      -2.40856949       0.71118816
H       -1.81460575      -1.20164137      -0.77683126       0.51996774       3.90926630       1.95002856       0.51996774       3.90926630       1.95002856
H        0.80881677      -1.31475425       1.07288382       0.10730351      -0.23230115      -0.67102456       0.10730351      -0.23230115      -0.67102456
H        1.95367868      -0.90192670      -0.25506498      -0.50481045      -2.27319967       0.91534489      -0.50481045      -2.27319967       0.91534489
H        0.62461071      -2.04093299      -0.58427281       1.57050989       1.24379459       1.94256092       1.57050989       1.24379459       1.94256092
14
Properties=species:S:1:pos:R:3:forces:R:3:gap_forces:R:3 energy=-4309.766710635365 name=tbu gap_energy=-4309.766710635365 config_type=start_12 pbc="F F F"
C        0.04380969       0.07959276      -0.46178684       0.25938545       0.55620615      -0.60268803       0.25938545       0.55620615      -0.60268803
C        0.46498507       1.39774981       0.27404930       0.33255886       2.30968805       2.24391416       0.33255886       2.30968805       2.24391416
C       -1.43731891      -0.21291233      -0.21724300      -6.55515703      -1.87769553      -0.03103665      -6.55515703      -1.87769553      -0.03103665
C        0.91969145      -1.12266391       0.01406508       3.34373996      -1.92468054      -0.57692190       3.34373996      -1.92468054      -0.57692190
H        0.16172294       0.20706672      -1.57483452       0.53254323       0.14108558      -2.27144693       0.53254323       0.14108558      -2.27144693
H       -0.13182172       2.28159023      -0.05070331       1.87198722      -0.59512675       1.49553494       1.87198722      -0.59512675       1.49553494
H        1.50359340       1.56928807       0.07184488      -0.31124944       1.96708463       0.67262781      -0.31124944       1.96708463       0.67262781
H        0.31790226       1.27395678       1.39740711       0.36044273       0.29198646      -2.57646340       0.36044273       0.29198646      -2.57646340
H       -1.66619567      -0.38675302       0.86677539       0.85812716       0.17324564      -2.02267275       0.85812716       0.17324564      -2.02267275
H       -2.07900954       0.62699388      -0.54554515      -0.39114752      -2.09336372       0.33054296      -0.39114752      -2.09336372       0.33054296
H       -1.80140426      -1.14781458      -0.79848772      -0.03940738       2.95694340       2.09606682      -0.03940738       2.95694340       2.09606682