14
Properties=species:S:1:pos:R:3 energy=-4305.117114564319 name=nbu_bent smiles=CCCC config_type=start_0 pbc="F F F"
C       -1.44910021       0.27030049       0.11159794
C       -0.49984066      -0.59503996      -0.81003623
C        0.70750746      -0.93223114       0.24338074
C        1.66456188       0.51832962       0.37344556
H       -1.13017012       1.34495685       0.32268619
H       -1.86978607      -0.05453089       1.26788066
H       -2.42295893       0.48704035      -0.60436631
H       -0.32501449       0.17641165      -1.67366687
H       -1.01388136      -1.37075867      -1.03529844
H        0.58132441      -1.08755987       1.08621512
H        1.46005718      -1.55722414      -0.37799901
H        2.40688298       0.25444348       1.01190133
H        1.07684919       1.00968081       1.07172300
H        1.76140677       1.11605052      -0.36172302
14
Properties=species:S:1:pos:R:3 energy=-4305.117114564319 name=nbu_bent smiles=CCCC config_type=start_1 pbc="F F F"
C       -1.53740934       0.33598280       0.27521992
C       -0.45800163      -0.34671962      -0.63694764
C        0.91351020      -0.85296757       0.13072652
C        1.48751800       0.35266740       0.43556459
H       -1.03803876       1.35938103       0.35529571
H       -1.75205665       0.02770936       1.00561344
H       -2.60360316       0.64089195      -0.59255571
H       -0.05854486       0.10755333      -1.64292322
H       -0.99269358      -1.41310792      -0.91387608
H        0.41884496      -1.25324154       1.07085359
H        1.34057320      -1.57560476      -0.34707623
H        2.20687788       0.16053092       1.15333286
H        1.09258270       1.12451244       0.93649278
H        2.00227488       1.10035108      -0.55294705
14
Properties=species:S:1:pos:R:3 energy=-4305.117114564319 name=nbu_bent smiles=CCCC config_type=start_2 pbc="F F F"
C       -1.46983080       0.37949214      -0.03596770
C       -0.58464081      -0.56219780      -0.68930581
C        0.80951565      -0.70660538       0.25583592
C        1.42452800       0.48414338       0.32346190
H       -1.10284489       1.41539985       0.20188231
H       -1.98597137      -0.04508136       1.02163244
H       -2.58274106       0.55058039      -0.61096002
H       -0.30337258       0.02538719      -1.78479973
H       -1.00040238      -1.40223284      -1.04444164
H        0.43604554      -1.39711326       1.06201150
H        1.29702781      -1.52606528      -0.45456614
H        2.52157908       0.13931518       1.07859233
H        0.96739215       1.11326624       1.02858504
H        1.74838705       1.14855489      -0.43990279
14
Properties=species:S:1:pos:R:3 energy=-4305.117114564319 name=nbu_bent smiles=CCCC config_type=start_3 pbc="F F F"
C       -1.62821869       0.47105221       0.22729789
C       -0.43944903      -0.67670199      -0.70677430
C        0.60923118      -0.78897349       0.02555101
C        1.68355646       0.48330077       0.45905881
H       -1.11192903       1.56050547       0.39307419
H       -1.86411669      -0.06633828       0.95587954
H       -2.50461239       0.55222274      -0.73237472
H       -0.39387663       0.04789426      -1.73286534
H       -1.01516328      -1.41442167      -0.92680026
H        0.44389415      -1.37638508       1.29009161
H        1.24317487      -1.31463142      -0.37630648
H        2.56255406       0.31912262       1.06340392
H        1.11513602       1.10443382       1.05238616
H        1.78752414       0.92496461      -0.64589199
14
Properties=species:S:1:pos:R:3 energy=-4305.117114564319 name=nbu_bent smiles=CCCC config_type=start_4 pbc="F F F"
C       -1.68406242       0.32985429       0.13019490
C       -0.59108522      -0.31620580      -0.83129792
C        0.62088366      -0.82066658       0.00134155
C        1.47009144       0.37905205       0.41331764
H       -1.25349482       1.24033232       0.25337734
H       -1.99554094       0.03738596       0.92780980
H       -2.46365562       0.49635541      -0.59123604
H       -0.20556188       0.16861490      -1.56207698
H       -1.14319334      -1.58218819      -0.85686606
H        0.43359957      -1.12712733       1.17109397
H        1.47197902      -1.60468981      -0.42637131
H        2.39170091       0.41886167       1.21524507
H        1.23458009       1.12262190       1.06521582
H        2.05025279       0.91621486      -0.48631372
14
Properties=species:S:1:pos:R:3 energy=-4305.117114564319 name=nbu_bent smiles=CCCC config_type=start_5 pbc="F F F"
C       -1.41515108       0.39054050      -0.11371407
C       -0.55041285      -0.40205710      -0.83505675
C        0.56729080      -0.73129421       0.05236511
C        1.73432006       0.50406270       0.62466876
H       -1.07389106       1.50496317       0.22038035
H       -1.97984960       0.13037003       1.12726344
H       -2.42032864       0.43138393      -0.51820745
H       -0.21041820       0.00284799      -1.55685018
H       -0.95080758      -1.60049587      -0.82212180
H        0.40705293      -1.16412160       1.17755976
H        1.28600906      -1.47541032      -0.40392301
H        2.59146345       0.31788453       1.03054418
H        1.01807665       1.28234895       1.10095707
H        1.91629206       0.99489651      -0.30817420
14
Properties=species:S:1:pos:R:3 energy=-4305.117114564319 name=nbu_bent smiles=CCCC config_type=start_6 pbc="F F F"
C       -1.62063259       0.39203856       0.10385512
C       -0.43582949      -0.38040023      -0.67673418
C        0.60344315      -0.88243809       0.07776041
C        1.67106637       0.42963006       0.49633557
H       -1.20555333       1.50913259       0.13775970
H       -1.76613979      -0.09267561       0.93224785
H       -2.42567895       0.43646365      -0.55960945
H        0.02686606       0.11261249      -1.63378460
H       -0.89052954      -1.52921166      -0.91745555
H        0.49597098      -1.26851825       1.14238978
H        1.32259155      -1.56327762      -0.42646695
H        2.55943186       0.12178366       1.06529339
H        1.01387901       1.11113441       0.92685119
H        1.92376588       1.06412603      -0.35931662
14
Properties=species:S:1:pos:R:3 energy=-4305.117114564319 name=nbu_bent smiles=CCCC config_type=start_7 pbc="F F F"
C       -1.57149052       0.40364000       0.05127393
C       -0.48493438      -0.62035466      -0.85141523
C        0.79067399      -0.66452294       0.17546905
C        1.63363537       0.59932012       0.56813908
H       -1.09325640       1.56266020       0.34035301
H       -1.84874065      -0.05635277       1.07014496
H       -2.45874415       0.48009632      -0.63455341
H       -0.13776158       0.16534131      -1.46772852
H       -1.05781611      -1.51242232      -1.02980111
H        0.48447395      -1.38793923       1.15973213
H        1.29777837      -1.51493579      -0.50725849
H        2.69681901       0.11537007       1.00828093
H        1.00260123       1.11701035       1.11080813
H        2.03081046       1.01506506      -0.29854113
14
Properties=species:S:1:pos:R:3 energy=-4305.117114564319 name=nbu_bent smiles=CCCC config_type=start_8 pbc="F F F"
C       -1.65298791       0.40273964      -0.08718589
C       -0.44806062      -0.48667864      -0.61486239
C        0.67885207      -0.78250680       0.18874675
C        1.69759017       0.57291115       0.42111738
H       -1.08255461       1.29349280       0.30253231
H       -1.97527708      -0.21066663       0.92630684
H       -2.33116047       0.47925716      -0.74381075
H       -0.21986383      -0.04270369      -1.72418043
H       -0.93097162      -1.49883406      -0.90198013
H        0.40497645      -1.46341290       1.08087357
H        1.22373906      -1.31749246      -0.44276960
H        2.74660673       0.15835358       1.06004442
H        0.94482716       0.97524534       1.23527467
H        1.82568347       1.02661989      -0.42083729
14
Properties=species:S:1:pos:R:3 energy=-4305.117114564319 name=nbu_bent smiles=CCCC config_type=start_9 pbc="F F F"
C       -1.66591803       0.39535925      -0.17380573
C       -0.38272446      -0.52307266      -0.72735585
C        0.62286554      -0.89119860       0.23282368
C        1.67585858       0.58051943       0.42138194
H       -1.17686838       1.50608004       0.22993421
H       -1.82630010      -0.16129844       0.85319962
H       -2.53112822       0.53296784      -0.60302545
H       -0.25818144       0.21530192      -1.66438103
H       -1.04267107      -1.61865098      -1.02016282
H        0.51535789      -1.27783284       1.00486604
H        1.48122253      -1.34089525      -0.33730942
H        2.43895917       0.22597936       1.06722097
H        0.97164360       1.24641160       1.00559925
H        1.66130849       0.93152742      -0.48960765
14
Properties=species:S:1:pos:R:3 energy=-4305.117114564319 name=nbu_bent smiles=CCCC config_type=start_10 pbc="F F F"
C       -1.53829372       0.35414682       0.00705052
C       -0.42114133      -0.36289140      -0.63204300
C        0.64607600      -0.73563900       0.14540095
C        1.52181557       0.59182021       0.38826549
H       -1.16787530       1.29839795       0.34343426
H       -1.83521536      -0.09803065       0.91560939
H       -2.45027985       0.46063096      -0.58871005
H       -0.39044432      -0.12903535      -1.42634193
H       -0.93159738      -1.53530574      -0.94271812
H        0.59546261      -1.10792150       1.25190663
H        1.46909824      -1.47522799      -0.49080637
H        2.60422014       0.25682127       1.03887208
H        1.15319325       1.31709543       1.01394348
H        1.85522725       0.80972448      -0.60491185
14
Properties=species:S:1:pos:R:3 energy=-4305.117114564319 name=nbu_bent smiles=CCCC config_type=start_11 pbc="F F F"
C       -1.57530071       0.48782953       0.04943571
C       -0.63639531      -0.41554776      -0.80378233
C        0.81264910      -0.84573065       0.12541525
C        1.48981793       0.35284261       0.38603020
H       -1.18168557       1.43496142       0.31777226
H       -1.90877974      -0.04957824       1.08271987
H       -2.68573265       0.66122898      -0.68336274
H       -0.13725675      -0.10947928      -1.75890217
H       -1.03977860      -1.59533546      -0.79118227
H        0.46419055      -1.19213663       1.08675313
H        1.40030261      -1.41766981      -0.34508493
H        2.66261562       0.24614956       0.99509450
H        0.99007822       1.13865888       1.13343617
H        1.86657684       1.07335413      -0.44774240
14
Properties=species:S:1:pos:R:3 energy=-4305.117114564319 name=nbu_bent smiles=CCCC config_type=start_12 pbc="F F F"
C       -1.56377101       0.31234088      -0.03962016
C       -0.54251727      -0.29551049      -0.51668331
C        0.68522844      -0.65727928      -0.05970449
C        1.54034577       0.54353702       0.39261007
H       -1.10580742       1.48328837       0.20905865
H       -2.00152234      -0.05965706       0.99716143
H       -2.45040569       0.53371600      -0.65175303
H        0.02053685       0.03439215      -1.76989538
H       -1.06372207      -1.35756658      -0.91723885
H        0.47377553      -1.33732575       1.26032347
H        1.45586782      -1.44375052      -0.45788908
H        2.68803813       0.25078626       1.06526230
H        1.00533212       1.22128756       1.05122076
H        1.86717116       1.03980583      -0.49381841
14
Properties=species:S:1:pos:R:3 energy=-4305.117114564319 name=nbu_bent smiles=CCCC config_type=start_13 pbc="F F F"
C       -1.56023882       0.27928218       0.18231670
C       -0.63908425      -0.57907455      -0.76400628
C        0.81450017      -0.73688787       0.20011711
C        1.67085891       0.43214634       0.35269556
H       -1.13848846       1.45640209       0.35655957
H       -1.92573439      -0.19819825       0.86840600
H       -2.60329468       0.39102051      -0.62006123
H       -0.36633308      -0.05704956      -1.77157038
H       -0.95267948      -1.34823776      -1.06897001
H        0.47962789      -1.37399969       1.08106705
H        1.27882755      -1.38069590      -0.25009746
H        2.53951934       0.25295849       1.00975505
H        0.89872891       1.17158885       1.03423758
H        1.83961178       1.15737904      -0.41993255
14
Properties=species:S:1:pos:R:3 energy=-4305.117114564319 name=nbu_bent smiles=CCCC config_type=start_14 pbc="F F F"
C       -1.36860890       0.43677468       0.13321802
C       -0.52105603      -0.37098700      -0.55162847
C        0.67699107      -0.84938349       0.15116324
C        1.57812360       0.48709286       0.50503468
H       -1.15406633       1.36036482       0.13324036
H       -1.76482448      -0.14924460       0.83976789
H       -2.38829605       0.45205254      -0.59396208
H       -0.05246813      -0.00583548      -1.47977147
H       -0.97654280      -1.45193623      -0.93928644
H        0.35032383      -1.27718303       1.12965083
H        1.38809351      -1.60253501      -0.59443986
H        2.55624166       0.25027602       1.15424482
H        0.99274304       1.09598620       0.92967907
H        2.04203731       1.02546499      -0.42864849
14
Properties=species:S:1:pos:R:3 energy=-4305.117114564319 name=nbu_bent smiles=CCCC config_type=start_15 pbc="F F F"
C       -1.42792419       0.16989191       0.03829557
C       -0.56807113      -0.39319616      -0.63268240
C        0.66493570      -0.77975067       0.32274191
C        1.53160938       0.59486982       0.56147444
H       -1.31798010       1.44466127       0.23375426
H       -2.12383591      -0.31266884       0.86690789
H       -2.58283651       0.66137568      -0.63770235
H       -0.20769018       0.07410011      -1.72225422
H       -1.05750396      -1.58484434      -0.97160907
H        0.47135990      -1.31859090       1.29064418
H        1.41051428      -1.66149973      -0.39369869
H        2.52222295       0.16831975       1.02786049
H        0.91168414       1.00129607       1.11634523
H        1.70598968       0.95184082      -0.45327731
14
Properties=species:S:1:pos:R:3 energy=-4305.117114564319 name=nbu_bent smiles=CCCC config_type=start_16 pbc="F F F"
C       -1.41719556       0.39515818      -0.15879329
C       -0.47402056      -0.54334873      -0.59169973
C        0.65442448      -0.90012400       0.26432690
C        1.65881890       0.52613136       0.43395145
H       -1.28638396       1.54852422       0.14798784
H       -1.87698040      -0.00071162       1.02591126
H       -2.54082842       0.54975377      -0.74789824
H       -0.18092043      -0.10193247      -1.65358612
H       -0.98327992      -1.54248674      -0.97456584
H        0.50023344      -1.31005055       1.13306448
H        1.28620380      -1.54559675      -0.44669657
H        2.68519930       0.21318857       1.08269857
H        1.09965775       1.27337401       1.16334363
H        1.88659578       1.05148937      -0.45202071
14
Properties=species:S:1:pos:R:3 energy=-4305.117114564319 name=nbu_bent smiles=CCCC config_type=start_17 pbc="F F F"
C       -1.75298458       0.26988040       0.01816588
C       -0.40805843      -0.30149689      -0.64840927
C        0.82481640      -0.79949733      -0.09207048
C        1.42104274       0.43099530       0.41659280
H       -1.03874910       1.38676827       0.32601731
H       -1.90908960       0.03177093       1.01896148
H       -2.53893818       0.54198886      -0.78706641
H       -0.18540831       0.11532698      -1.62261132
H       -0.99457118      -1.50510005      -0.85182320
H        0.50442673      -1.28716917       1.15557137
H        1.25615810      -1.53963677      -0.46489588
H        2.39431865       0.18669153       0.95565474
H        1.01197143       1.20212019       0.95535310
H        1.93346972       0.80658108      -0.53549410
14
Properties=species:S:1:pos:R:3 energy=-4305.117114564319 name=nbu_bent smiles=CCCC config_type=start_18 pbc="F F F"
C       -1.49374085       0.52583817       0.14856650
C       -0.43115032      -0.45332091      -0.65788744
C        0.81553278      -0.76878200       0.20152670
C        1.57170322       0.27889911       0.39996400
H       -1.06590622       1.53599099       0.37607443
H       -1.78335493      -0.26808479       1.17588755
H       -2.51627737       0.46741661      -0.70800948
H       -0.42831033       0.20692747      -1.73176543
H       -1.20055321      -1.43364907      -0.92866782
H        0.28451306      -1.40257009       0.94470860
H        1.36398861      -1.43145647      -0.42248925
H        2.44969076       0.28663652       1.08016445
H        0.92338686       1.08589664       1.07657837
H        1.87344478       1.02857932      -0.35702894
14
Properties=species:S:1:pos:R:3 energy=-4305.117114564319 name=nbu_bent smiles=CCCC config_type=start_19 pbc="F F F"
C       -1.72980586       0.41715654      -0.01766450
C       -0.57337755      -0.39002727      -0.74793901
C        0.79699417      -0.86523682       0.05380166
C        1.54118069       0.53900392       0.48390070
H       -1.18251340       1.47389696       0.09891281
H       -1.81480026      -0.14412341       1.04155096
H       -2.62949509       0.44684765      -0.67781277
H       -0.03104999       0.07960906      -1.60577788
H       -1.04087521      -1.36498530      -0.86448782
H        0.38783656      -1.27350272       1.02766430
H        1.44465490      -1.44165067      -0.44476276
H        2.54527078       0.24384818       0.90196986
H        1.01726153       1.20153337       1.02337985
H        1.61493802       0.96268590      -0.44120821
14
Properties=species:S:1:pos:R:3 energy=-4305.117114564319 name=nbu_bent smiles=CCCC config_type=start_20 pbc="F F F"
C       -1.63288813       0.51991412       0.08990101
C       -0.53963931      -0.49354243      -0.76023889
C        0.64632354      -0.82086762       0.04948630
C        1.60732119       0.44636984       0.36158495
H       -1.27440938       1.46942211       0.15931997
H       -1.76595673      -0.18203652       0.98613419
H       -2.40479357       0.42510013      -0.76683428
H       -0.10471800       0.05474954      -1.59351202
H       -1.15590963      -1.48276841      -1.20419265
H        0.50993367      -1.27058370       1.23613627
H        1.34870624      -1.38204510      -0.34112548
H        2.56046124       0.31032999       0.91466225
H        1.08297863       1.10433825       0.99103315
H        2.06784840       1.12471876      -0.46620043
14
Properties=species:S:1:pos:R:3 energy=-4305.117114564319 name=nbu_bent smiles=CCCC config_type=start_21 pbc="F F F"
C       -1.39621742       0.28783014      -0.06155892
C       -0.54697373      -0.47700786      -0.57584318
C        0.58962427      -0.70588593       0.03433029
C        1.47048562       0.52986432       0.48206752
H       -1.00486115       1.39418945       0.18067434
H       -1.78741316      -0.00500918       0.94160730
H       -2.43355664       0.50078829      -0.40524449
H       -0.40941679      -0.11555814      -1.62962394
H       -0.91485353      -1.48017465      -0.92881845
H        0.47677440      -1.41625851       1.17256694
H        1.27940741      -1.47039679      -0.34867831
H        2.54661002       0.27429300       1.01674033
H        0.93768151       1.18003883       1.11114455
H        1.82310506       1.06348318      -0.50104557
14
Properties=species:S:1:pos:R:3 energy=-4305.117114564319 name=nbu_bent smiles=CCCC config_type=start_22 pbc="F F F"
C       -1.41804631       0.60876306       0.13510596
C       -0.44184529      -0.46278552      -0.81211943
C        0.83981847      -0.64239364       0.08530627
C        1.59068509       0.26723973       0.43735723
H       -1.19771840       1.46944364       0.33103881
H       -1.89317188      -0.20474994       0.90476118
H       -2.35571104       0.60677904      -0.63817573
H       -0.24872781       0.09435294      -1.67476522
H       -0.93807515      -1.33239154      -0.96656766
H        0.36602726      -1.38233209       0.96658627
H        1.18518369      -1.57222394      -0.31789083
H        2.52026383       0.24913145       1.04601276
H        1.04861994       1.31867580       1.09657350
H        1.47755811       1.19202565      -0.55755530
14
Properties=species:S:1:pos:R:3 energy=-4305.117114564319 name=nbu_bent smiles=CCCC config_type=start_23 pbc="F F F"
C       -1.46774152       0.20306241      -0.11778467
C       -0.46692282      -0.45173741      -0.70025671
C        0.82302157      -0.89328114       0.28203675
C        1.50439517       0.44087668       0.37592950
H       -1.29770506       1.33880865       0.34401235
H       -1.66671771       0.03485401       0.89349523
H       -2.52619507       0.69889145      -0.57264607
H       -0.31328540       0.02782879      -1.56533195
H       -0.94026149      -1.59971724      -1.03899119
H        0.27676517      -1.31022142       1.17801559
H        1.40121723      -1.48532675      -0.45289708
H        2.53486947       0.25924740       0.87541087
H        1.07191269       1.20639083       1.02302855
H        1.97762358       1.06113752      -0.35010876
14
Properties=species:S:1:pos:R:3 energy=-4305.117114564319 name=nbu_bent smiles=CCCC config_type=start_24 pbc="F F F"
C       -1.49283648       0.56373846      -0.24152580
C       -0.50638244      -0.47251903      -0.52714055
C        0.66390692      -0.79530332       0.15831166
C        1.66794209       0.34504698       0.52473378
H       -0.96979614       1.25693854       0.44573018
H       -1.95957604      -0.05341746       0.82688080
H       -2.52132627       0.56237613      -0.47987695
H       -0.37242958       0.13788251      -1.70500706
H       -0.93946360      -1.47050570      -0.99347684
H        0.52769899      -1.30336328       1.02183830
H        1.28368964      -1.55361510      -0.37646959
H        2.54032276       0.21662959       0.86685099
H        1.01151170       1.25071613       0.96749717
H        1.91413961       1.10587361      -0.42518141
