14
Properties=species:S:1:pos:R:3:forces:R:3:gap_forces:R:3 energy=-4306.689521219234 name=nbu_straight gap_energy=-4306.689521219234 config_type=start_0 pbc="F F F"
C       -1.87414260      -0.14734160      -0.19177143      -7.11680852      -3.60651920       0.67428310      -7.11680852      -3.60651920       0.67428310
C       -0.63555169      -0.25128482       0.73516463       0.41941480       1.51363080      -0.77286839       0.41941480       1.51363080      -0.77286839
C        0.66766999       0.06866323      -0.09182249       0.14690022       2.12118711       2.04466102       0.14690022       2.12118711       2.04466102
C        1.90862205       0.06132224       0.84547914       4.52437156      -1.06695021      -1.09623722       4.52437156      -1.06695021      -1.09623722
H       -2.83522962      -0.42586258       0.40733024       0.38445443       0.39510795      -1.10267744       0.38445443       0.39510795      -1.10267744
H       -2.04910901       0.78372289      -0.65597903      -1.00272349       2.53964103      -0.88547781      -1.00272349       2.53964103      -0.88547781
H       -1.85062850      -0.92470108      -1.02386650      -0.69464085      -0.22278534       0.51026074      -0.69464085      -0.22278534       0.51026074
H       -0.72967766       0.51284150       1.55216074      -2.03134351       0.04917612       1.05894482      -2.03134351       0.04917612       1.05894482
H       -0.60311325      -1.21719353       1.19713399      -0.65537266      -1.74884359       0.80615257      -0.65537266      -1.74884359       0.80615257
H        0.74815250      -0.54720224      -0.90945726       2.31626539      -1.77598266      -2.25468864       2.31626539      -1.77598266      -2.25468864
H        0.59642400       1.08915182      -0.53148704       1.77424806       0.27248366      -0.25664280       1.77424806       0.27248366      -0.25664280
H        1.84591795       0.79477496       1.64180189       0.88647839       1.36661154       1.18091205       0.88647839       1.36661154       1.18091205
H        2.08113780      -0.94009453       1.31274706       0.26687254       0.08675179      -0.24515516       0.26687254       0.08675179      -0.24515516
H        2.82675566       0.30576958       0.24998467       0.78188365       0.07649102       0.33853316       0.78188365       0.07649102       0.33853316
14
Properties=species:S:1:pos:R:3:forces:R:3:gap_forces:R:3 energy=-4306.369317279865 name=nbu_straight gap_energy=-4306.369317279865 config_type=start_1 pbc="F F F"
C       -1.87020384      -0.15750439      -0.18192814      -7.98891666      -1.48266754      -0.35862593      -7.98891666      -1.48266754      -0.35862593
C       -0.58765599      -0.23151883       0.67641197      -0.53964095       0.93057432       3.86751900      -0.53964095       0.93057432       3.86751900
C        0.66451719       0.09771357      -0.03922041       0.41390248       0.30230939      -3.82198341       0.41390248       0.30230939      -3.82198341
C        1.94919239       0.05797534       0.77963951       0.65213250      -0.82476182       5.31665844       0.65213250      -0.82476182       5.31665844
H       -2.86551962      -0.41905294       0.41671550       1.54279253       0.66781088      -1.25664400       1.54279253       0.66781088      -1.25664400
H       -2.01209773       0.82885836      -0.62183163      -1.54324781       1.34256312       0.18101792      -1.54324781       1.34256312       0.18101792
H       -1.89205077      -0.85379658      -1.02532651      -0.13545860      -1.07303668      -0.34444439      -0.13545860      -1.07303668      -0.34444439
H       -0.76776484       0.56476503       1.56682398       0.19132882      -1.45295796      -1.39848430       0.19132882      -1.45295796      -1.39848430
H       -0.56750513      -1.20966135       1.21914461      -0.48618372       0.20316182      -0.13049980      -0.48618372       0.20316182      -0.13049980
H        0.78376116      -0.63620570      -0.88808836       1.06446674       0.34569462       1.31093253       1.06446674       0.34569462       1.31093253
H        0.55446817       1.11520997      -0.53140470       2.17139975      -0.14079728       0.79440996       2.17139975      -0.14079728       0.79440996
H        1.88899039       0.83240842       1.69231367       0.36430633      -1.39406902      -1.83317892       0.36430633      -1.39406902      -1.83317892
H        2.02980128      -1.00930142       1.27469887       0.85067748       1.96246735      -1.19757818       0.85067748       1.96246735      -1.19757818
H        2.82561414       0.28326710       0.29358565       3.44244112       0.61370878      -1.12909892       3.44244112       0.61370878      -1.12909892
14
Properties=species:S:1:pos:R:3:forces:R:3:gap_forces:R:3 energy=-4306.745166259534 name=nbu_straight gap_energy=-4306.745166259534 config_type=start_2 pbc="F F F"
C       -1.95663375      -0.25485591      -0.15064231       4.49539692       3.29907280      -1.27973768       4.49539692       3.29907280      -1.27973768
C       -0.66128434      -0.24897975       0.71644551       3.39598571      -0.47297526       0.40059448       3.39598571      -0.47297526       0.40059448
C        0.70423481       0.08898091      -0.06573080      -7.06295462      -0.06999649      -0.93620133      -7.06295462      -0.06999649      -0.93620133
C        1.92967940       0.05977225       0.80928783       1.18021635       0.82405775       1.31986482       1.18021635       0.82405775       1.31986482
H       -2.80742172      -0.42474954       0.41485504      -2.80287910      -0.67557341       1.34618293      -2.80287910      -0.67557341       1.34618293
H       -2.05355278       0.80372925      -0.63323584      -0.70537627      -0.68547194       0.50861879      -0.70537627      -0.68547194       0.50861879
H       -1.86324818      -0.90950267      -0.99163933      -1.00595111      -1.37400260      -1.15533728      -1.00595111      -1.37400260      -1.15533728
H       -0.79595547       0.46565458       1.52275270      -1.42045248       1.00030004       0.33191768      -1.42045248       1.00030004       0.33191768
H       -0.56536924      -1.24002334       1.19867490      -1.19308384      -0.60937126      -0.20959176      -1.19308384      -0.60937126      -0.20959176
H        0.76284563      -0.66278830      -0.90373659       1.74593118       0.39987878       0.14452844       1.74593118       0.39987878       0.14452844
H        0.57908850       1.12140390      -0.55028085       0.78377744      -0.76746822       0.48751120       0.78377744      -0.76746822       0.48751120
H        1.86592044       0.78730508       1.71764678       0.63922340      -0.57004070      -1.77438354       0.63922340      -0.57004070      -1.77438354
H        2.07631731      -0.92544722       1.25763848       0.59245549      -1.39716522       0.88584221       0.59245549      -1.39716522       0.88584221
H        2.83822378       0.25166158       0.24697515       1.35771092       1.09875573      -0.06980897       1.35771092       1.09875573      -0.06980897
14
Properties=species:S:1:pos:R:3:forces:R:3:gap_forces:R:3 energy=-4306.541685948046 name=nbu_straight gap_energy=-4306.541685948046 config_type=start_3 pbc="F F F"
C       -1.90909194      -0.15057015      -0.16755996      -3.86767113      -2.82201543      -0.77609075      -3.86767113      -2.82201543      -0.77609075
C       -0.66597808      -0.19376621       0.77593522       4.80728167      -1.38253989      -2.02422590       4.80728167      -1.38253989      -2.02422590
C        0.67299998       0.06909995      -0.02049246      -1.28524611       2.33314490      -2.74509450      -1.28524611       2.33314490      -2.74509450
C        1.95754214       0.05035908       0.80351078      -4.20536129       0.36897263       1.56027995      -4.20536129       0.36897263       1.56027995
H       -2.82225222      -0.43965014       0.39854292      -0.25350555      -0.17887038      -0.68774399      -0.25350555      -0.17887038      -0.68774399
H       -2.05725064       0.82941551      -0.61186516      -1.05139422       1.09099734      -0.58904222      -1.05139422       1.09099734      -0.58904222
H       -1.81064740      -0.93887903      -1.05593709      -1.38442943       1.15880706       1.95807632      -1.38442943       1.15880706       1.95807632
H       -0.77861996       0.53750542       1.51036978      -1.61860918       1.18965979       2.15299801      -1.61860918       1.18965979       2.15299801
H       -0.57518502      -1.22256247       1.17150810      -0.70752549      -0.06929412       0.26194457      -0.70752549      -0.06929412       0.26194457
H        0.77077919      -0.61560912      -0.87187542       1.93291313      -0.24033642       0.41492918       1.93291313      -0.24033642       0.41492918
H        0.56744757       1.12438848      -0.57309017       2.27189698      -1.16563078       1.16369314       2.27189698      -1.16563078       1.16369314
H        1.86854252       0.79531464       1.63582619       1.44244922       0.25549420      -0.04040840       1.44244922       0.25549420      -0.04040840
H        2.10583302      -0.90326095       1.24847345      -0.20030775      -2.31322906       1.62475897      -0.20030775      -2.31322906       1.62475897
H        2.77989056       0.24094295       0.22892901       4.11950916       1.77484017      -2.27407440       4.11950916       1.77484017      -2.27407440
14
Properties=species:S:1:pos:R:3:forces:R:3:gap_forces:R:3 energy=-4306.2477991513615 name=nbu_straight gap_energy=-4306.2477991513615 config_type=start_4 pbc="F F F"
C       -1.95221088      -0.13644040      -0.18817940       7.09555998      -3.66973570       4.62440515       7.09555998      -3.66973570       4.62440515
C       -0.58600361      -0.27689818       0.75903173      -3.94716869       4.36763330      -2.69541724      -3.94716869       4.36763330      -2.69541724
C        0.65344009       0.09062548      -0.11763868      -1.80694026      -0.14809388       1.28051695      -1.80694026      -0.14809388       1.28051695
C        1.89584799       0.05147576       0.84953352       4.86371606       1.39936979      -1.94246893       4.86371606       1.39936979      -1.94246893
H       -2.82489801      -0.39878174       0.41964764      -2.15489882      -0.06688774      -0.69045204      -2.15489882      -0.06688774      -0.69045204
H       -2.03823576       0.83325083      -0.61193308      -2.07785014       2.31031104      -1.28898569      -2.07785014       2.31031104      -1.28898569
H       -1.78313108      -0.89362971      -1.01519396      -2.58140520      -0.23617325      -0.27052308      -2.58140520      -0.23617325      -0.27052308
H       -0.69597055       0.48689718       1.55578315      -2.70302336      -0.67234044       0.70113589      -2.70302336      -0.67234044       0.70113589
H       -0.57913772      -1.18699710       1.19346801      -2.81527991      -3.40186303       1.70099608      -2.81527991      -3.40186303       1.70099608
H        0.78040902      -0.63959761      -0.95913621       1.71786471       0.52866535      -1.72047947       1.71786471       0.52866535      -1.72047947
H        0.56706286       1.13760132      -0.55547052       2.12850499       0.34975409      -1.19332535       2.12850499       0.34975409      -1.19332535
H        1.88638404       0.80320386       1.67243799       0.30274783       0.50516928       0.23955751       0.30274783       0.50516928       0.23955751
H        2.04928734      -0.92103571       1.27858428       0.99413696      -1.48781675       0.83539377       0.99413696      -1.48781675       0.83539377
H        2.81224643       0.32239156       0.23808969       0.98403583       0.22200795       0.41964645       0.98403583       0.22200795       0.41964645
14
Properties=species:S:1:pos:R:3:forces:R:3:gap_forces:R:3 energy=-4306.618864100262 name=nbu_straight gap_energy=-4306.618864100262 config_type=start_5 pbc="F F F"
C       -1.89782980      -0.17607584      -0.10401809      -4.11130068      -0.93614195      -1.88930401      -4.11130068      -0.93614195      -1.88930401
C       -0.60928565      -0.21773544       0.72523330      -0.13882489      -1.80639748       2.96266607      -0.13882489      -1.80639748       2.96266607
C        0.66109264       0.13528331      -0.03663095       0.06300268       0.25321035      -4.60845387       0.06300268       0.25321035      -4.60845387
C        1.95436663       0.13179902       0.77582189      -0.02338003      -1.51390222       2.41437757      -0.02338003      -1.51390222       2.41437757
H       -2.79260728      -0.47185347       0.40190966      -1.77245170      -0.08426691       1.27428817      -1.77245170      -0.08426691       1.27428817
H       -2.05737568       0.79546689      -0.59379409      -0.95611301       1.14741294       0.34898814      -0.95611301       1.14741294       0.34898814
H       -1.82193405      -0.87108242      -0.96189313      -0.72586070      -1.46517303      -1.01932697      -0.72586070      -1.46517303      -1.01932697
H       -0.78706336       0.50419219       1.52566435      -1.00955857      -0.10806926       0.12777606      -1.00955857      -0.10806926       0.12777606
H       -0.52698997      -1.30082410       1.19131591      -0.23764942       1.50409928      -0.48306725      -0.23764942       1.50409928      -0.48306725
H        0.76823344      -0.66779816      -0.90742518       1.54663772       1.55865516       1.34627721       1.54663772       1.55865516       1.34627721
H        0.50568808       1.12943192      -0.54501306       2.65951903      -0.10846105       0.43752151       2.65951903      -0.10846105       0.43752151
H        1.84163449       0.78220070       1.66607684       1.80473780       0.73791689      -0.48721356       1.80473780       0.73791689      -0.48721356
H        2.13085506      -0.90435743       1.24790255       0.52816337      -0.17366279      -0.06676320       0.52816337      -0.17366279      -0.06676320
H        2.84622845       0.30029466       0.22542801       2.37307838       0.99478006      -0.35776587       2.37307838       0.99478006      -0.35776587
14
Properties=species:S:1:pos:R:3:forces:R:3:gap_forces:R:3 energy=-4306.467440219291 name=nbu_straight gap_energy=-4306.467440219291 config_type=start_6 pbc="F F F"
C       -1.88350941      -0.14252701      -0.19191982      -4.80298919      -1.47880518      -0.96460903      -4.80298919      -1.47880518      -0.96460903
C       -0.64578988      -0.21071946       0.67155024       1.39096428      -0.48113202       4.29231288       1.39096428      -0.48113202       4.29231288
C        0.66177709       0.09065132      -0.03571032       0.86275141       1.28459970      -3.59369424       0.86275141       1.28459970      -3.59369424
C        1.92320133       0.04925462       0.89520450       1.16053843       1.72801835      -4.05385167       1.16053843       1.72801835      -4.05385167
H       -2.75838647      -0.44164536       0.42963678      -1.45359663       0.16543589      -0.44950154      -1.45359663       0.16543589      -0.44950154
H       -2.07061124       0.85467157      -0.63900743      -0.51169142       0.09525148       0.30105949      -0.51169142       0.09525148       0.30105949
H       -1.83393654      -0.89015309      -1.03499088      -1.12777528      -0.06921142      -0.05784770      -1.12777528      -0.06921142      -0.05784770
H       -0.77116084       0.50405186       1.54960954      -1.34250858      -0.19974469      -0.77661928      -1.34250858      -0.19974469      -0.77661928
H       -0.54120058      -1.23025994       1.18309432      -1.95462882       0.27255459      -0.84160275      -1.95462882       0.27255459      -0.84160275
H        0.78753882      -0.61116874      -0.90376120       1.68874050       0.33610947       0.85630694       1.68874050       0.33610947       0.85630694
H        0.56645251       1.11061452      -0.58943878       2.07298398      -0.61038117       1.07124691       2.07298398      -0.61038117       1.07124691
H        1.86139843       0.79539452       1.62453469       0.97673214       1.38872453       2.01567768       0.97673214       1.38872453       2.01567768
H        2.05495558      -0.92093324       1.23064675       1.71741983      -2.51717750       1.63334521       1.71741983      -2.51717750       1.63334521
H        2.82540382       0.29788015       0.26313603       1.32305936       0.08575797       0.56777711       1.32305936       0.08575797       0.56777711
14
Properties=species:S:1:pos:R:3:forces:R:3:gap_forces:R:3 energy=-4306.50916327553 name=nbu_straight gap_energy=-4306.50916327553 config_type=start_7 pbc="F F F"
C       -1.92435582      -0.19828567      -0.20074065       1.80814384       2.63038743       1.04951173       1.80814384       2.63038743       1.04951173
C       -0.61515612      -0.17542942       0.67208695      -2.47612677      -3.35953052       1.64716297      -2.47612677      -3.35953052       1.64716297
C        0.70230444       0.08552149      -0.09297914      -4.76554167       0.90174945      -1.87791387      -4.76554167       0.90174945      -1.87791387
C        1.90578449       0.06455934       0.80639720       5.75558761       1.47973124       0.17044190       5.75558761       1.47973124       0.17044190
H       -2.80653288      -0.46759300       0.37017833      -2.27339188       0.12248494       0.88013186      -2.27339188       0.12248494       0.88013186
H       -2.07772186       0.83883423      -0.67307733      -0.47410028      -0.86924679       0.63539512      -0.47410028      -0.86924679       0.63539512
H       -1.90286113      -0.89712531      -0.98482200       0.27385776      -2.05327167      -3.02638504       0.27385776      -2.05327167      -3.02638504
H       -0.72852620       0.49651347       1.49671311      -2.05017662       0.93567250       0.66348942      -2.05017662       0.93567250       0.66348942
H       -0.54471613      -1.26815563       1.19132411      -0.93672199       1.77008120      -0.72941926      -0.93672199       1.77008120      -0.72941926
H        0.74829959      -0.63120999      -0.93927232       1.25710990      -0.11022112       0.11605601       1.25710990      -0.11022112       0.11605601
H        0.52719206       1.10566016      -0.56154753       1.63943186      -0.32784178       0.70254339       1.63943186      -0.32784178       0.70254339
H        1.86194874       0.83642900       1.66101835       0.83056725      -0.41928514      -1.09743752       0.83056725      -0.41928514      -1.09743752
H        2.06879668      -0.92513190       1.21147384       0.46547001      -1.35093792       0.71265738       0.46547001      -1.35093792       0.71265738
H        2.85464742       0.31117475       0.27479427       0.94589099       0.65022819       0.15376591       0.94589099       0.65022819       0.15376591
14
Properties=species:S:1:pos:R:3:forces:R:3:gap_forces:R:3 energy=-4306.280586827921 name=nbu_straight gap_energy=-4306.280586827921 config_type=start_8 pbc="F F F"
C       -1.86866252      -0.17398036      -0.17823761      -4.16018666       0.00839360      -0.74761647      -4.16018666       0.00839360      -0.74761647
C       -0.65173993      -0.17432168       0.71699010      -0.14694304      -1.93574679       3.02117400      -0.14694304      -1.93574679       3.02117400
C        0.72400377       0.08143129       0.00416012      -5.91536744       2.02571412      -8.23868374      -5.91536744       2.02571412      -8.23868374
C        1.90344977       0.07270741       0.80030634       7.73476488      -1.52088519       4.21501906       7.73476488      -1.52088519       4.21501906
H       -2.80944377      -0.49755052       0.37712515      -0.65138244       0.72864033      -0.02437521      -0.65138244       0.72864033      -0.02437521
H       -2.03130918       0.82818965      -0.62962526      -0.39944497      -0.11514182       0.58576778      -0.39944497      -0.11514182       0.58576778
H       -1.87502976      -0.93033602      -0.98967774       2.03771339      -0.36419256      -0.55088378       2.03771339      -0.36419256      -0.55088378
H       -0.71906654       0.50377347       1.55417858      -1.52298404       1.42112884       0.39643650      -1.52298404       1.42112884       0.39643650
H       -0.61753072      -1.21093997       1.19260309       0.88970591      -0.23198273      -0.73488273       0.88970591      -0.23198273      -0.73488273
H        0.77995912      -0.57415569      -0.94280582       0.74229190      -0.31966360       2.06065071       0.74229190      -0.31966360       2.06065071
H        0.57050474       1.13560096      -0.54842797       1.53957365      -1.01067496       1.51018505       1.53957365      -1.01067496       1.51018505
H        1.91500193       0.79244420       1.66296308      -0.29841776      -0.02888712       0.05904953      -0.29841776      -0.02888712       0.05904953
H        2.12073260      -0.98123783       1.23451683      -1.50103990       0.77300928      -0.42353776      -1.50103990       0.77300928      -0.42353776
H        2.83263124       0.32733328       0.28011466       1.65171651       0.57028859      -1.12830293       1.65171651       0.57028859      -1.12830293
14
Properties=species:S:1:pos:R:3:forces:R:3:gap_forces:R:3 energy=-4306.412875630505 name=nbu_straight gap_energy=-4306.412875630505 config_type=start_9 pbc="F F F"
C       -1.92099966      -0.22412262      -0.16642031      -1.08151641       0.49385038      -0.01106589      -1.08151641       0.49385038      -0.01106589
C       -0.66288061      -0.27481040       0.66817335       0.49535207       2.30177308       1.81013376       0.49535207       2.30177308       1.81013376
C        0.63711963       0.04461892      -0.05574188      -0.47928536       0.94832037      -3.45160590      -0.47928536       0.94832037      -3.45160590
C        1.89764891       0.04830693       0.83842624       4.81766832       0.24848079      -1.46423683       4.81766832       0.24848079      -1.46423683
H       -2.82929318      -0.43533172       0.42446778      -0.93335920       0.25101192      -1.00803970      -0.93335920       0.25101192      -1.00803970
H       -2.04646644       0.84266055      -0.60727668      -1.27612802      -1.37091448       0.71464311      -1.27612802      -1.37091448       0.71464311
H       -1.78015151      -0.97473293      -0.96803292      -1.93421070      -0.21720851       0.09583288      -1.93421070      -0.21720851       0.09583288
H       -0.70205914       0.53133714       1.50175875      -2.50830829      -0.60765285      -1.12608633      -2.50830829      -0.60765285      -1.12608633
H       -0.50314379      -1.17149220       1.16574780      -2.24639053      -1.68203985      -0.18903855      -2.24639053      -1.68203985      -0.18903855
H        0.80311390      -0.68563921      -0.90900162       0.64017813       0.90963589       0.91082720       0.64017813       0.90963589       0.91082720
H        0.56262116       1.10119831      -0.57762175       0.81937124      -1.36821708       0.67950865       0.81937124      -1.36821708       0.67950865
H        1.89970305       0.82816912       1.57225543       0.49136040       2.05637495       1.90922411       0.49136040       2.05637495       1.90922411
H        2.03487829      -0.91335409       1.31286746       2.03329712      -1.82903471       1.01706194       2.03329712      -1.82903471       1.01706194
H        2.83087213       0.23681908       0.21413115       1.16197123      -0.13437989       0.11284156       1.16197123      -0.13437989       0.11284156
14
Properties=species:S:1:pos:R:3:forces:R:3:gap_forces:R:3 energy=-4306.337247509331 name=nbu_straight gap_energy=-4306.337247509331 config_type=start_10 pbc="F F F"
C       -1.93805843      -0.16161950      -0.16824112       1.48779330       0.92078489      -2.42234884       1.48779330       0.92078489      -2.42234884
C       -0.66109242      -0.19535103       0.67099529       3.38040722      -1.83136376       5.01291205       3.38040722      -1.83136376       5.01291205
C        0.63704625       0.06634598      -0.02144500      -1.10595105       2.71567045      -3.77537757      -1.10595105       2.71567045      -3.77537757
C        1.92888905       0.03618197       0.79747822       1.48814226      -0.27827500       2.83999484       1.48814226      -0.27827500       2.83999484
H       -2.77891343      -0.38769503       0.36374789      -4.54057301      -0.23115439       1.54811906      -4.54057301      -0.23115439       1.54811906
H       -2.02264371       0.86709047      -0.67657180      -1.57864453      -1.00478041       0.66268087      -1.57864453      -1.00478041       0.66268087
H       -1.84064778      -0.91468864      -0.98005671      -1.36429920      -0.41513843      -0.84455417      -1.36429920      -0.41513843      -0.84455417
H       -0.75023926       0.52217577       1.51881123      -1.44998068      -0.43702686      -1.54874998      -1.44998068      -0.43702686      -1.54874998
H       -0.51882360      -1.24957404       1.21877931      -1.91594477       1.66797377      -1.69381545      -1.91594477       1.66797377      -1.69381545
H        0.75259698      -0.57999919      -0.87065535       0.99690349      -0.69925147      -0.14315808       0.99690349      -0.69925147      -0.14315808
H        0.54521207       1.14439286      -0.58598611       1.10402974      -1.41453393       1.15986098       1.10402974      -1.41453393       1.15986098
H        1.85134265       0.80042586       1.61642330       0.93829739       0.31264201       0.60236897       0.93829739       0.31264201       0.60236897
H        2.09482700      -0.99649602       1.24172803      -0.12684687       0.20545602      -0.18089162      -0.12684687       0.20545602      -0.18089162
H        2.86902970       0.26673774       0.33003803       2.68666671       0.48899712      -1.21704106       2.68666671       0.48899712      -1.21704106
14
Properties=species:S:1:pos:R:3:forces:R:3:gap_forces:R:3 energy=-4306.692003055964 name=nbu_straight gap_energy=-4306.692003055964 config_type=start_11 pbc="F F F"
C       -1.88937173      -0.20680727      -0.15544526      -4.71161657       1.64037170      -0.75855710      -4.71161657       1.64037170      -0.75855710
C       -0.65935713      -0.22937896       0.72005479       0.45549307      -1.29479081       1.08187110       0.45549307      -1.29479081       1.08187110
C        0.65533204       0.10542385      -0.06076566       0.99723138       0.17816326      -2.58951148       0.99723138       0.17816326      -2.58951148
C        1.89698154       0.08308167       0.79131637       4.75047832      -0.93912178       0.42963602       4.75047832      -0.93912178       0.42963602
H       -2.81573218      -0.40141222       0.39947173      -0.86090217       0.07237959      -0.20058314      -0.86090217       0.07237959      -0.20058314
H       -2.05928437       0.84216509      -0.65056649      -0.83983530      -1.16560285       0.89969762      -0.83983530      -1.16560285       0.89969762
H       -1.81784993      -0.89347688      -1.00019160      -1.10001785      -1.19597004      -0.72533105      -1.10001785      -1.19597004      -0.72533105
H       -0.69392190       0.43914214       1.57547158      -2.51839946       0.98622626       0.75774225      -2.51839946       0.98622626       0.75774225
H       -0.56047406      -1.24905926       1.13931185      -0.79145347      -0.58943289      -0.02789793      -0.79145347      -0.58943289      -0.02789793
H        0.78065967      -0.63421646      -0.94086108       1.33551371       0.40803415       0.50041997       1.33551371       0.40803415       0.50041997
H        0.55758266       1.08772281      -0.57332469       1.31330713       0.58298795       0.03931458       1.31330713       0.58298795       0.03931458
H        1.86407454       0.78983068       1.61494088       0.51917434       1.42346517       1.22538365       0.51917434       1.42346517       1.22538365
H        2.11077286      -0.92787696       1.25319938      -0.03438542      -0.39286795      -0.05090726      -0.03438542      -0.39286795      -0.05090726
H        2.81700006       0.32532273       0.22356649       1.48541230       0.28615823      -0.58127722       1.48541230       0.28615823      -0.58127722
14
Properties=species:S:1:pos:R:3:forces:R:3:gap_forces:R:3 energy=-4306.571234285718 name=nbu_straight gap_energy=-4306.571234285718 config_type=start_12 pbc="F F F"
C       -1.88302977      -0.15127612      -0.19013587      -5.27852444      -1.17780396      -0.61755823      -5.27852444      -1.17780396      -0.61755823
C       -0.61477700      -0.21085560       0.71843677       1.69271232      -1.19705216       2.34786615       1.69271232      -1.19705216       2.34786615
C        0.66365910       0.05864815      -0.03784092       1.58129148       1.27984354      -2.88803229       1.58129148       1.27984354      -2.88803229
C        1.97627768       0.03157837       0.86003171      -5.36251292       3.02158273      -1.53529198      -5.36251292       3.02158273      -1.53529198
H       -2.80731238      -0.38311776       0.34774705      -2.08436477      -0.39778653       0.72611628      -2.08436477      -0.39778653       0.72611628
H       -2.03585565       0.83967727      -0.62462169      -0.38983143       1.07819955      -0.65472947      -0.38983143       1.07819955      -0.65472947
H       -1.84672886      -0.94308639      -0.99673874      -0.30798823      -0.02632310      -0.18952985      -0.30798823      -0.02632310      -0.18952985
H       -0.78678767       0.48840998       1.58208030      -0.11351239      -0.23323692      -0.00937424      -0.11351239      -0.23323692      -0.00937424
H       -0.53202169      -1.26527129       1.16096725      -1.29010637       0.64461118      -0.16725345      -1.29010637       0.64461118      -0.16725345
H        0.72382796      -0.59307454      -0.97465139       2.54521709       0.26271131       1.22861974       2.54521709       0.26271131       1.22861974