14
Properties=species:S:1:pos:R:3:forces:R:3:gap_forces:R:3 energy=-4306.174595678779 name=nbu_bent gap_energy=-4306.174595678779 config_type=start_0 pbc="F F F"
C       -1.59454431       0.37624875       0.01992331       0.15387540      -0.47598973       0.14881771       0.15387540      -0.47598973       0.14881771
C       -0.52904527      -0.46533755      -0.69903292       1.54852342      -0.04254194       0.48601453       1.54852342      -0.04254194       0.48601453
C        0.74086725      -0.77978051       0.15230463      -2.29707889       1.63808825      -0.35419213      -2.29707889       1.63808825      -0.35419213
C        1.60520448       0.46042199       0.45726769       0.06364818       0.23107059      -1.31551791       0.06364818       0.23107059      -1.31551791
H       -1.19530777       1.39432020       0.25904228       0.83353541      -0.59839788      -0.73957584       0.83353541      -0.59839788      -0.73957584
H       -1.90716006      -0.09046760       0.96317214       0.16827456       0.02176862      -0.51094110       0.16827456       0.02176862      -0.51094110
H       -2.50328114       0.52999084      -0.61749979      -0.88165789       0.48464041       1.11089788      -0.88165789       0.48464041       1.11089788
H       -0.22853700       0.02558895      -1.64066650      -0.50416268      -0.36175633      -1.08393803      -0.50416268      -0.36175633      -1.08393803
H       -1.00046821      -1.45059567      -0.99112924      -0.14814199       1.37894077      -0.89005389      -0.14814199       1.37894077      -0.89005389
H        0.44001539      -1.24460444       1.09152441       0.84218134      -1.08777388       0.72653589       0.84218134      -1.08777388       0.72653589
H        1.37712599      -1.49787020      -0.41616175       0.36898382      -0.14414695       1.51192931       0.36898382      -0.14414695       1.51192931
H        2.51017544       0.19314181       0.99501295       1.25492014       0.59266985       0.27624582       1.25492014       0.59266985       0.27624582
H        1.04953928       1.20562411       1.06485280      -1.06820571      -0.97544595       0.13253474      -1.06820571      -0.97544595       0.13253474
H        1.89751511       0.98966710      -0.47675381      -0.33469512      -0.66112582       0.50124301      -0.33469512      -0.66112582       0.50124301
14
Properties=species:S:1:pos:R:3:forces:R:3:gap_forces:R:3 energy=-4306.155909049577 name=nbu_bent gap_energy=-4306.155909049577 config_type=start_1 pbc="F F F"
C       -1.59611117       0.39260255       0.01187049       0.47219402      -2.07898205       0.48520811       0.47219402      -2.07898205       0.48520811
C       -0.53339997      -0.48521357      -0.71567924       2.70666407       2.64988052       1.78390040       2.70666407       2.64988052       1.78390040
C        0.73610731      -0.77064742       0.14207274      -2.01961954      -0.33649630       0.37786950      -2.01961954      -0.33649630       0.37786950
C        1.60989423       0.47906969       0.45431326      -1.66357717      -0.62086370      -1.63102847      -1.66357717      -0.62086370      -1.63102847
H       -1.19390879       1.38458196       0.26339257       1.41549789      -0.11735647      -0.52385856       1.41549789      -0.11735647      -0.52385856
H       -1.92425227      -0.09221675       0.95871144       0.90860371       0.06684897      -0.67985649       0.90860371       0.06684897      -0.67985649
H       -2.48900206       0.52719487      -0.60608760      -1.35636892       0.51774943       0.22792625      -1.35636892       0.51774943       0.22792625
H       -0.23434350       0.03801307      -1.65069658      -1.03535496      -0.14700486      -1.01551828      -1.03535496      -0.14700486      -1.01551828
H       -0.99464976      -1.44059472      -0.97816116      -0.78706263       0.56185161      -1.38996630      -0.78706263       0.56185161      -1.38996630
H        0.44347644      -1.26255688       1.11024182       0.54384228      -0.26343565       0.09980576       0.54384228      -0.26343565       0.09980576
H        1.38905836      -1.53233339      -0.40063299       0.40789157       0.30141197       1.96120148       0.40789157       0.30141197       1.96120148
H        2.52355676       0.18909774       0.99261643       1.09627563       1.11346108       0.26324456       1.09627563       1.11346108       0.26324456
H        1.03217624       1.21805765       1.08272198      -0.42163459      -1.34186071      -0.39754533      -0.42163459      -1.34186071      -0.39754533
H        1.90185491       0.99801303      -0.47551641      -0.26735137      -0.30520386       0.43861735      -0.26735137      -0.30520386       0.43861735
14
Properties=species:S:1:pos:R:3:forces:R:3:gap_forces:R:3 energy=-4306.047372802753 name=nbu_bent gap_energy=-4306.047372802753 config_type=start_2 pbc="F F F"
C       -1.59073342       0.39113282       0.01772588      -0.32017518      -1.94608393       0.25960224      -0.32017518      -1.94608393       0.25960224
C       -0.55769167      -0.50195245      -0.70781108       3.88392823       3.33145665       1.46884775       3.88392823       3.33145665       1.46884775
C        0.72971005      -0.77047613       0.13579625      -1.86073153       0.39596427      -0.03688803      -1.86073153       0.39596427      -0.03688803
C        1.57535835       0.48556629       0.44527442       1.04524616      -1.22036810      -1.44027166       1.04524616      -1.22036810      -1.44027166
H       -1.21305246       1.39051952       0.26944773       0.78776172      -0.06790432      -0.82681462       0.78776172      -0.06790432      -0.82681462
H       -1.92370297      -0.09096384       0.95190101       1.06013794      -0.14796993      -0.15833660       1.06013794      -0.14796993      -0.15833660
H       -2.49029684       0.50903298      -0.59997210      -1.28214944       0.77013027       0.22473036      -1.28214944       0.77013027       0.22473036
H       -0.22565594       0.03633658      -1.65523713      -1.01667709      -0.81124578      -0.50546786      -1.01667709      -0.81124578      -0.50546786
H       -0.98470188      -1.43176703      -0.99742310      -0.98508484       0.08808421      -1.27349567      -0.98508484       0.08808421      -1.27349567
H        0.45198714      -1.25607095       1.07848891      -0.23478856      -0.67156138       0.58940339      -0.23478856      -0.67156138       0.58940339
H        1.36154230      -1.51540088      -0.39767335       0.38672753      -0.04333529       1.10596192       0.38672753      -0.04333529       1.10596192
H        2.52221077       0.21475348       1.01091362       0.51359361       0.95534648      -0.39359930       0.51359361       0.95534648      -0.39359930
H        1.06157304       1.19776258       1.07510207      -1.60449142      -0.14161588       0.67028094      -1.60449142      -0.14161588       0.67028094
H        1.90053829       0.99146760      -0.47809364      -0.37329714      -0.49089728       0.31604716      -0.37329714      -0.49089728       0.31604716
14
Properties=species:S:1:pos:R:3:forces:R:3:gap_forces:R:3 energy=-4306.145241443267 name=nbu_bent gap_energy=-4306.145241443267 config_type=start_3 pbc="F F F"
C       -1.58539417       0.37675297       0.01141312      -1.40386832      -0.37480413       1.28169166      -1.40386832      -0.37480413       1.28169166
C       -0.52934594      -0.49231756      -0.70569879       1.57297161       1.67513448       0.84686842       1.57297161       1.67513448       0.84686842
C        0.73614852      -0.76710640       0.14566877      -1.21846921      -0.21908268       0.23439261      -1.21846921      -0.21908268       0.23439261
C        1.57934707       0.48830119       0.45023488       1.64128979      -1.32206294      -1.08177916       1.64128979      -1.32206294      -1.08177916
H       -1.20305694       1.38796588       0.27268179       0.64824208      -0.42541734      -0.91418703       0.64824208      -0.42541734      -0.91418703
H       -1.92144900      -0.07651116       0.98177791       0.99422113      -0.02758342      -1.11632005       0.99422113      -0.02758342      -1.11632005
H       -2.49308297       0.50771269      -0.60653246      -0.84052880       0.38696079       0.56349228      -0.84052880       0.38696079       0.56349228
H       -0.23591350       0.00796469      -1.64431746      -0.35569905      -0.38253472      -1.09227587      -0.35569905      -0.38253472      -1.09227587
H       -1.00290030      -1.43118220      -0.98358721      -0.68925874       0.27448669      -1.13669631      -0.68925874       0.27448669      -1.13669631
H        0.43226356      -1.26211491       1.09684100       0.33330879      -0.73455844       0.08978333       0.33330879      -0.73455844       0.08978333
H        1.36304021      -1.52264399      -0.40586340       0.11985588       0.27197355       1.53714880       0.11985588       0.27197355       1.53714880
H        2.51543964       0.21748161       1.01634984       0.82632064       1.34079155      -0.25071841       0.82632064       1.34079155      -0.25071841
H        1.05755423       1.20602510       1.06595416      -1.50024303      -0.03281307       0.84994685      -1.50024303      -0.03281307       0.84994685
H        1.88413789       0.99312463      -0.47246259      -0.12814278      -0.43049033       0.18865289      -0.12814278      -0.43049033       0.18865289
14
Properties=species:S:1:pos:R:3:forces:R:3:gap_forces:R:3 energy=-4306.117364509814 name=nbu_bent gap_energy=-4306.117364509814 config_type=start_4 pbc="F F F"
C       -1.60640512       0.36696653       0.03197106       1.82978392      -0.61084296      -0.68231695       1.82978392      -0.61084296      -0.68231695
C       -0.52414356      -0.48197830      -0.70266732       1.84951824       1.53002784       2.02900357       1.84951824       1.53002784       2.02900357
C        0.74464156      -0.77907407       0.15491754      -3.27960738       1.74183560      -0.08778201      -3.27960738       1.74183560      -0.08778201
C        1.60043791       0.47600631       0.47386476      -0.33419466      -0.67004944      -3.00865634      -0.33419466      -0.67004944      -3.00865634
H       -1.20779846       1.37656574       0.27163452       0.93565997      -0.19555886      -0.64045031       0.93565997      -0.19555886      -0.64045031
H       -1.91784639      -0.08997709       0.95029783       0.17053255      -0.56236302       0.49178781       0.17053255      -0.56236302       0.49178781
H       -2.50118702       0.54071479      -0.59567750      -1.31484260       0.35313523       0.42756470      -1.31484260       0.35313523       0.42756470
H       -0.23898117       0.00399932      -1.64315513       0.20828826      -0.03607419      -0.97555894       0.20828826      -0.03607419      -0.97555894
H       -0.98849991      -1.42883927      -0.97398798      -0.31582801       0.44243752      -0.82872219      -0.31582801       0.44243752      -0.82872219
H        0.42050542      -1.25601103       1.09194754       0.44653206      -1.35901324       0.23765767       0.44653206      -1.35901324       0.23765767
H        1.37421875      -1.50090062      -0.40229440       0.46397768      -0.03067048       1.41125311       0.46397768      -0.03067048       1.41125311
H        2.51768254       0.21225498       0.98744070       1.76540504       0.78097680       0.45350073       1.76540504       0.78097680       0.45350073
H        1.06892117       1.21099325       1.08053563      -1.46793215      -0.54831691       0.25387055      -1.46793215      -0.54831691       0.25387055
H        1.91520920       0.99928805      -0.48289916      -0.95729293      -0.83552388       0.91884861      -0.95729293      -0.83552388       0.91884861
14
Properties=species:S:1:pos:R:3:forces:R:3:gap_forces:R:3 energy=-4306.098608746862 name=nbu_bent gap_energy=-4306.098608746862 config_type=start_5 pbc="F F F"
C       -1.60640180       0.37798625       0.02701750       2.40822846      -1.78309511       0.10626019       2.40822846      -1.78309511       0.10626019
C       -0.54016739      -0.48250860      -0.70621419       2.57773996       0.89622158       1.21621998       2.57773996       0.89622158       1.21621998
C        0.75833276      -0.76623276       0.13511491      -4.58161484       1.76326218       0.29837706      -4.58161484       1.76326218       0.29837706
C        1.58995877       0.48357366       0.44208646       0.61885693      -0.58316572      -0.88952180       0.61885693      -0.58316572      -0.88952180
H       -1.21314203       1.39356421       0.27408661       0.80644348      -0.41276009      -0.46829515       0.80644348      -0.41276009      -0.46829515
H       -1.91519473      -0.11583278       0.96031484       0.27880075       0.16340430      -0.26620991       0.27880075       0.16340430      -0.26620991
H       -2.49075293       0.53484399      -0.59816027      -1.98468686       0.72629744       0.55627398      -1.98468686       0.72629744       0.55627398
H       -0.21338518      -0.00268173      -1.64249799      -0.11203079      -0.61166320      -1.04335695      -0.11203079      -0.61166320      -1.04335695
H       -0.99377317      -1.45694765      -0.99316691      -0.45075763       0.93102618      -0.89838724      -0.45075763       0.93102618      -0.89838724
H        0.44199682      -1.24841038       1.09830234       0.76407063      -0.55046828       0.16731215       0.76407063      -0.55046828       0.16731215
H        1.36133694      -1.49675420      -0.39290487       0.53506743      -0.19460912       0.87419788       0.53506743      -0.19460912       0.87419788
H        2.52039012       0.19407182       0.98905961       0.62176723       1.14611576      -0.01888223       0.62176723       1.14611576      -0.01888223
H        1.04401887       1.21276151       1.07538516      -0.95731699      -1.07780789       0.03547113      -0.95731699      -1.07780789       0.03547113
H        1.90112523       0.99822802      -0.48191473      -0.52456776      -0.41275803       0.33054090      -0.52456776      -0.41275803       0.33054090
14
Properties=species:S:1:pos:R:3:forces:R:3:gap_forces:R:3 energy=-4306.141750314791 name=nbu_bent gap_energy=-4306.141750314791 config_type=start_6 pbc="F F F"
C       -1.58301039       0.37415414       0.02153266      -0.87085325      -1.52061609       0.94667668      -0.87085325      -1.52061609       0.94667668
C       -0.52173852      -0.48047467      -0.70130194       1.48519884       0.61161979      -0.07697323       1.48519884       0.61161979      -0.07697323
C        0.74639033      -0.78778058       0.14015053      -2.32066732       1.36058514       0.95611405      -2.32066732       1.36058514       0.95611405
C        1.59676110       0.46980726       0.46900716       0.79136327      -0.64486748      -2.40114089       0.79136327      -0.64486748      -2.40114089
H       -1.20285774       1.36813844       0.25602039       1.26543238       0.42974615      -0.33714526       1.26543238       0.42974615      -0.33714526
H       -1.93317847      -0.09641155       0.98362682       1.08826233       0.14487798      -1.28804720       1.08826233       0.14487798      -1.28804720
H       -2.49585007       0.52218428      -0.59318384      -1.41823375       0.36388797       0.62551799      -1.41823375       0.36388797       0.62551799
H       -0.23259261       0.01579280      -1.65451101      -0.05508736      -0.13134498      -0.64973783      -0.05508736      -0.13134498      -0.64973783
H       -0.97992233      -1.45447738      -1.00190041      -0.39442405       0.87672295      -0.81113315      -0.39442405       0.87672295      -0.81113315
H        0.43235341      -1.26442735       1.10169703       0.45982577      -0.77007014       0.19044084       0.45982577      -0.77007014       0.19044084
H        1.35820380      -1.52161809      -0.39904456       0.77879783      -0.37443354       1.23675315       0.77879783      -0.37443354       1.23675315
H        2.51410834       0.20594568       1.01570647       1.15523685       0.97055970      -0.02584450       1.15523685       0.97055970      -0.02584450
H        1.05418933       1.19990687       1.05949541      -1.38070583      -0.24817252       0.72959519      -1.38070583      -0.24817252       0.72959519
H        1.90240770       1.00920507      -0.47134065      -0.58414571      -1.06849494       0.90492415      -0.58414571      -1.06849494       0.90492415
14
Properties=species:S:1:pos:R:3:forces:R:3:gap_forces:R:3 energy=-4306.116226660119 name=nbu_bent gap_energy=-4306.116226660119 config_type=start_7 pbc="F F F"
C       -1.60490583       0.38744272       0.03319860       2.04488940      -2.65090352      -0.57037507       2.04488940      -2.65090352      -0.57037507
C       -0.51951582      -0.48607286      -0.70896731       1.45214012       1.95014397       2.03863431       1.45214012       1.95014397       2.03863431
C        0.72840792      -0.78320509       0.14398392      -1.54453634       3.39820521      -0.04374594      -1.54453634       3.39820521      -0.04374594
C        1.60095452       0.50640946       0.45289900      -0.93988466      -4.27155358      -1.67516515      -0.93988466      -4.27155358      -1.67516515
H       -1.20609063       1.36723536       0.27323184       1.11645714       0.73432609      -0.31478670       1.11645714       0.73432609      -0.31478670
H       -1.92508183      -0.07212195       0.96848596       0.51051856      -0.25771707       0.01027429       0.51051856      -0.25771707       0.01027429
H       -2.48211619       0.51612579      -0.58544563      -1.96861717       0.52539568      -0.05058669      -1.96861717       0.52539568      -0.05058669
H       -0.23039245       0.01256439      -1.65471103      -0.62311653      -0.28605772      -1.03488572      -0.62311653      -0.28605772      -1.03488572
H       -1.00057728      -1.43976634      -0.98493182      -0.52524991       0.77481992      -1.01574754      -0.52524991       0.77481992      -1.01574754
H        0.43757601      -1.24784665       1.08409208       0.47076874      -0.98935907       0.83126784       0.47076874      -0.98935907       0.83126784
H        1.38096750      -1.50050653      -0.39167780       0.63675174      -0.13090237       1.47111590       0.63675174      -0.13090237       1.47111590
H        2.53059597       0.19709171       1.00045314       0.54655573       1.28396148      -0.16800073       0.54655573       1.28396148      -0.16800073
H        1.04923800       1.20115522       1.07662337      -1.21612165      -0.26740260       0.55784888      -1.21612165      -0.26740260       0.55784888
H        1.89629268       0.97451055      -0.47901830       0.03944483       0.18704359      -0.03584769       0.03944483       0.18704359      -0.03584769
14
Properties=species:S:1:pos:R:3:forces:R:3:gap_forces:R:3 energy=-4306.14368879621 name=nbu_bent gap_energy=-4306.14368879621 config_type=start_8 pbc="F F F"
C       -1.59987669       0.39991421       0.03431401       1.84658377      -2.57970577      -0.28728930       1.84658377      -2.57970577      -0.28728930
C       -0.54153828      -0.47637133      -0.69697076       2.68750777       1.25217761       0.95778660       2.68750777       1.25217761       0.95778660
C        0.72688117      -0.79981637       0.14597462      -2.56398447       3.55063454       0.50555283      -2.56398447       3.55063454       0.50555283
C        1.60728730       0.47590553       0.45332889      -1.57111672      -1.42623658      -1.76698778      -1.57111672      -1.42623658      -1.76698778
H       -1.18975657       1.39341646       0.27037056       0.93021855      -0.14371198      -0.76884566       0.93021855      -0.14371198      -0.76884566
H       -1.88325006      -0.08339562       0.97032003       0.06949479       0.00997662      -0.11082298       0.06949479       0.00997662      -0.11082298
H       -2.49032486       0.50169245      -0.60215129      -0.98509748       0.75013962       0.63918644      -0.98509748       0.75013962       0.63918644
H       -0.24394516       0.02703070      -1.63877813      -0.83744890       0.13643773      -0.60934569      -0.83744890       0.13643773      -0.60934569
H       -0.99577680      -1.43344377      -0.98828048      -0.76823341       0.95229164      -0.89496791      -0.76823341       0.95229164      -0.89496791
H        0.45382876      -1.25729264       1.10545108       0.55954544      -0.91156829       0.84212468       0.55954544      -0.91156829       0.84212468
H        1.35013993      -1.50972352      -0.38429683       0.87827939      -0.84977674       0.95325397       0.87827939      -0.84977674       0.95325397
H        2.51536890       0.20066185       0.99367438       1.34771398       0.53008632       0.37863619       1.34771398       0.53008632       0.37863619
H        1.05133092       1.20985171       1.08653384      -0.90871086      -0.83273342      -0.15483843      -0.90871086      -0.83273342      -0.15483843
H        1.91795408       0.99391759      -0.47534034      -0.68475186      -0.43801129       0.31655703      -0.68475186      -0.43801129       0.31655703
14
Properties=species:S:1:pos:R:3:forces:R:3:gap_forces:R:3 energy=-4306.130196019439 name=nbu_bent gap_energy=-4306.130196019439 config_type=start_9 pbc="F F F"
C       -1.58394692       0.38667060       0.01614991       0.02045881      -1.87762123       0.32106754       0.02045881      -1.87762123       0.32106754
C       -0.53273049      -0.46959688      -0.69968995       1.60229183       0.09069762       0.44927668       1.60229183       0.09069762       0.44927668
C        0.75453610      -0.77891089       0.14092636      -3.55465316       2.00003426      -0.03512687      -3.55465316       2.00003426      -0.03512687
C        1.58514074       0.47970061       0.45012617       1.64718066      -0.16422388      -1.04763803       1.64718066      -0.16422388      -1.04763803
H       -1.21661268       1.38289353       0.25936040       1.33983606       0.51319790      -0.44135910       1.33983606       0.51319790      -0.44135910
H       -1.91200374      -0.09441560       0.95460875       0.57772765      -0.08259212      -0.51746020       0.57772765      -0.08259212      -0.51746020
H       -2.48576902       0.54346067      -0.61031424      -1.30859706       0.32831716       0.52005910      -1.30859706       0.32831716       0.52005910
H       -0.22379938       0.02445270      -1.63173955      -0.61267072      -0.36438230      -1.23645355      -0.61267072      -0.36438230      -1.23645355
H       -0.99705372      -1.44714713      -0.99653279      -0.32995424       1.14896771      -0.80830528      -0.32995424       1.14896771      -0.80830528
H        0.44737731      -1.25724913       1.08701799       0.39803554      -0.87234208       0.53458995       0.39803554      -0.87234208       0.53458995
H        1.36370156      -1.51249323      -0.38858939       0.79688978      -0.39217686       1.06424499       0.79688978      -0.39217686       1.06424499
H        2.50753317       0.21740121       1.01120530       0.90556671       0.88355480      -0.21426089       0.90556671       0.88355480      -0.21426089
H        1.04353669       1.20310213       1.06640331      -1.10583225      -0.37675592       0.61284211      -1.10583225      -0.37675592       0.61284211
H        1.89422857       1.01148865      -0.48139904      -0.37627961      -0.83467505       0.79852355      -0.37627961      -0.83467505       0.79852355
14
Properties=species:S:1:pos:R:3:forces:R:3:gap_forces:R:3 energy=-4306.03606638779 name=nbu_bent gap_energy=-4306.03606638779 config_type=start_10 pbc="F F F"
C       -1.59936561       0.39950206       0.02830910       1.95161710      -3.48114825      -0.10521440       1.95161710      -3.48114825      -0.10521440
C       -0.55059161      -0.47838433      -0.70965245       4.03134447       1.33362362       1.93990344       4.03134447       1.33362362       1.93990344
C        0.75812306      -0.78607092       0.13198053      -5.29845772       3.10070258      -0.18269317      -5.29845772       3.10070258      -0.18269317
C        1.59240912       0.48144523       0.44859389       0.26690168      -0.83171123      -0.53030761       0.26690168      -0.83171123      -0.53030761
H       -1.21634148       1.38158197       0.28502257       1.27957932       0.53729138      -0.43382064       1.27957932       0.53729138      -0.43382064
H       -1.90306054      -0.10525909       0.96525564       0.33510023       0.19069819      -0.35784542       0.33510023       0.19069819      -0.35784542
H       -2.49876670       0.51765266      -0.59544566      -1.45531800       0.63156986       0.62991378      -1.45531800       0.63156986       0.62991378
H       -0.22319853       0.01829797      -1.64170786      -0.38485563      -0.42155128      -1.00477138      -0.38485563      -0.42155128      -1.00477138
H       -1.00008545      -1.44126861      -1.00222037      -0.83428981       0.92256112      -0.89499443      -0.83428981       0.92256112      -0.89499443
H        0.44201070      -1.25907063       1.09010616       0.28163580      -1.21264912       0.41312395       0.28163580      -1.21264912       0.41312395
H        1.36316037      -1.50560611      -0.40885673       0.46349574      -0.98028095       0.69811637       0.46349574      -0.98028095       0.69811637
H        2.53742937       0.23290557       1.02524578       0.75490426       1.50091001      -0.07145420       0.75490426       1.50091001      -0.07145420
H        1.04847670       1.21711870       1.08301449      -0.99780595      -1.07855999       0.00198147      -0.99780595      -1.07855999       0.00198147
H        1.90676372       0.98901426      -0.46591622      -0.39385149      -0.21145594      -0.10193776      -0.39385149      -0.21145594      -0.10193776
14
Properties=species:S:1:pos:R:3:forces:R:3:gap_forces:R:3 energy=-4306.0697878271185 name=nbu_bent gap_energy=-4306.0697878271185 config_type=start_11 pbc="F F F"
C       -1.59092157       0.37678726       0.00798562      -1.10757919       0.19839542       1.38186498      -1.10757919       0.19839542       1.38186498
C       -0.54362465      -0.46930054      -0.71481017       2.97569506       1.15415429       1.52798554       2.97569506       1.15415429       1.52798554
C        0.72826978      -0.77607021       0.12565134      -0.81222328       0.50597149       1.02755219      -0.81222328       0.50597149       1.02755219
C        1.60972742       0.47174754       0.47266577      -1.56261677      -0.83009658      -3.14637425      -1.56261677      -0.83009658      -3.14637425
H       -1.18562236       1.39964841       0.27768876       0.80557022      -1.46562111      -1.00422704       0.80557022      -1.46562111      -1.00422704
H       -1.93456595      -0.08420654       0.97382167       1.34888248       0.05746579      -1.23753965       1.34888248       0.05746579      -1.23753965
H       -2.49040170       0.51585691      -0.61576415      -0.82009919       0.55454872       0.72470157      -0.82009919       0.55454872       0.72470157
H       -0.23161691       0.02153105      -1.63686951      -0.38019536      -0.04641544      -1.08484286      -0.38019536      -0.04641544      -1.08484286
H       -1.00428831      -1.44761012      -0.98738296      -0.52192408       1.05906728      -1.03877256      -0.52192408       1.05906728      -1.03877256
H        0.43905798      -1.26433449       1.08866723       0.01746918      -0.62409229       0.23688091       0.01746918      -0.62409229       0.23688091
H        1.37141897      -1.52333690      -0.40322953       0.39845081       0.05735304       1.32563769       0.39845081       0.05735304       1.32563769
H        2.53433899       0.19756703       1.00628154       0.98556160       1.10729612       0.15586806       0.98556160       1.10729612       0.15586806
H        1.04215048       1.22099080       1.06483931      -1.01981815      -0.96399302       0.10105630      -1.01981815      -0.96399302       0.10105630
H        1.90651414       0.99823797      -0.48115323      -0.30717332      -0.76403373       1.03020912      -0.30717332      -0.76403373       1.03020912
14
Properties=species:S:1:pos:R:3:forces:R:3:gap_forces:R:3 energy=-4306.223982084707 name=nbu_bent gap_energy=-4306.223982084707 config_type=start_12 pbc="F F F"
C       -1.60468863       0.38963121       0.03351602       1.59154060      -2.11102217       0.18477229       1.59154060      -2.11102217       0.18477229
C       -0.54231193      -0.47080691      -0.69967424       2.91940360       0.50600646       0.74121426       2.91940360       0.50600646       0.74121426
C        0.74473255      -0.75908641       0.16047718      -3.48272498       1.41386709      -0.27620891      -3.48272498       1.41386709      -0.27620891
C        1.60209185       0.47221463       0.44103889      -0.41302013      -0.51389395      -0.32369263      -0.41302013      -0.51389395      -0.32369263
H       -1.21789228       1.39897666       0.28376251       0.81622867      -0.13626702      -0.38217021       0.81622867      -0.13626702      -0.38217021
H       -1.91901986      -0.10553414       0.97537333       0.30206862       0.37657474      -0.75010778       0.30206862       0.37657474      -0.75010778
H       -2.49240074       0.53577391      -0.60936123      -1.63838672       0.75407874       0.98342069      -1.63838672       0.75407874       0.98342069
H       -0.22355422       0.00731327      -1.65091781      -0.38888891      -0.49087918      -0.97065595      -0.38888891      -0.49087918      -0.97065595
H       -0.99535230      -1.45132514      -1.02618190      -0.59000484       1.22571997      -0.88564949      -0.59000484       1.22571997      -0.88564949
H        0.43738352      -1.26221136       1.09148944       0.34072691      -0.71189144       0.75244018       0.34072691      -0.71189144       0.75244018