14
Properties=species:S:1:pos:R:3 energy=-4305.117114564319 name=nbu_bent smiles=CCCC config_type=start_0 pbc="F F F"
C       -1.55348863       0.40614177       0.02137433
C       -0.96694608      -0.32953106      -0.67554633
C        0.82708640      -1.21445819       0.03815632
C        1.92034444       0.76981329       0.53777544
H       -1.13506777       1.44791662       0.24990825
H       -2.55509543      -0.09742096       0.94479885
H       -2.97162273       0.99658119      -0.51064645
H       -0.71966883       0.12162211      -1.64011230
H       -0.92935641      -1.93514656      -1.07055419
H        0.29936015      -1.93414206       0.91601707
H        1.78129222      -2.04664139      -0.51591962
H        2.81368757       0.46430376       1.07231973
H        1.31562844       1.82285028       1.25927308
H        2.55716871       1.21577815      -0.40960773
14
Properties=species:S:1:pos:R:3 energy=-4305.117114564319 name=nbu_bent smiles=CCCC config_type=start_1 pbc="F F F"
C       -1.57593137       0.37197623       0.01601767
C       -0.08702592      -0.64093294      -0.70908367
C        0.64727960      -0.32149981       0.22696768
C        1.21978956       0.17897471       0.38524856
H       -1.20938623       1.34753338       0.22784975
H       -1.19308457      -0.03013304       1.01393115
H       -1.97202327       0.03455481      -0.68786555
H        0.24726883      -0.13651211      -1.65731770
H       -1.05981959      -0.96478344      -0.86110581
H        0.59919785      -0.62034394       1.23146293
H        0.95454778      -0.93075461      -0.32834638
H        2.17269043      -0.05550776       0.93833827
H        0.70777956       0.55545172       0.92629292
H        1.18179129       0.80071185      -0.51109627
14
Properties=species:S:1:pos:R:3 energy=-4305.117114564319 name=nbu_bent smiles=CCCC config_type=start_2 pbc="F F F"
C       -1.39415998       0.43342492       0.06523496
C       -0.61362136      -0.59239761      -0.22586415
C        0.76332426      -0.63731243      -0.62537253
C        1.42804804       0.37795519       0.75682418
H       -0.44558678       1.60522900       0.38354751
H       -1.71498872      -0.06589419       1.27080053
H       -2.43971313       0.34498859       0.44651641
H       -0.88996012      -0.27095850      -1.26626445
H       -1.53150960      -1.45547065      -1.84760518
H        0.71779343      -1.04638049       0.10907689
H        1.59155403      -1.25698284      -1.46892713
H        1.77802845      -0.07210041       1.21008410
H        0.98850207       1.05156039       1.97493239
H        1.93645000       1.02522602      -0.46921594
14
Properties=species:S:1:pos:R:3 energy=-4305.117114564319 name=nbu_bent smiles=CCCC config_type=start_3 pbc="F F F"
C       -1.73526002       0.34469308      -0.02784296
C       -0.44035064      -0.37806639      -1.15876585
C        0.71104174      -0.89864557       0.89049653
C        1.71208596       0.57083281       0.16619982
H       -1.89886722       1.19022100       0.09421049
H       -2.03319128      -0.06165981       0.68792947
H       -2.50393287       0.68614741      -1.64502841
H        0.41756012       0.25606850      -2.03116555
H       -0.45766640      -1.44445935      -0.08405482
H        0.18076457      -1.50810551       2.03840311
H        1.14428597      -1.72041316       0.62466113
H        3.20834955       0.48089641       0.80057390
H        1.03490593       1.32674161       0.21063361
H        1.80251000       0.99126398      -0.45148806
14
Properties=species:S:1:pos:R:3 energy=-4305.117114564319 name=nbu_bent smiles=CCCC config_type=start_4 pbc="F F F"
C       -3.60635120       2.82412259      -1.59941640
C       -2.56472231       1.98372825      -2.37314275
C       -1.31877291       1.71321205      -1.51686057
C       -0.51062404       2.91650893      -1.05757758
H       -3.17516906       3.76564794      -1.38348652
H       -3.88039957       2.39922505      -0.77403072
H       -4.49740100       2.94888449      -2.25683911
H       -2.31496037       2.52918141      -3.32807096
H       -3.09073016       1.10388341      -2.61219964
H       -1.57772522       1.19504686      -0.65072265
H       -0.68870541       0.96492514      -2.02409058
H        0.37448402       2.71273098      -0.50574582
H       -1.05838175       3.59668707      -0.40459850
H       -0.21370528       3.42439349      -1.93352388
14
Properties=species:S:1:pos:R:3 energy=-4305.117114564319 name=nbu_bent smiles=CCCC config_type=start_5 pbc="F F F"
C        0.47693120      -2.04600459       1.63680840
C        1.51075031      -2.95419225       0.98851275
C        2.79313891      -3.24917005       1.78198457
C        3.65075804      -1.96772093       1.98060158
H        0.83071506      -0.97019794       1.86124452
H        0.13221957      -2.52677905       2.73276072
H       -0.44624500      -1.91774849       1.05832711
H        1.84256037      -2.54407141       0.03064096
H        1.10155416      -4.00381341       0.68053964
H        2.47628322      -3.74953286       2.79820265
H        3.42454541      -3.94232114       1.17982458
H        4.61189398      -2.30393498       2.51640382
H        3.08178975      -1.21838507       2.59016450
H        3.95266528      -1.40790349       1.01281988
14
Properties=species:S:1:pos:R:3 energy=-4305.117114564319 name=nbu_bent smiles=CCCC config_type=start_6 pbc="F F F"
C       -2.19048820      -2.70732104      -3.89452650
C       -1.20008913      -3.57746040      -4.58550705
C        0.11619188      -3.90850626      -3.80709262
C        0.97052597      -2.60191288      -3.45008202
H       -1.78525917      -1.68333037      -3.67046863
H       -2.56480314      -3.16886121      -2.91495846
H       -3.14817650      -2.54602264      -4.47236066
H       -0.92440257      -3.11393264      -5.54516235
H       -1.62764930      -4.60733139      -4.91020180
H       -0.18958782      -4.43185274      -2.86669484
H        0.78029589      -4.63229427      -4.37609318
H        1.88084941      -2.88676527      -2.91026169
H        0.40991306      -1.85472985      -2.79845070
H        1.30494152      -2.07003273      -4.38684780
14
Properties=species:S:1:pos:R:3 energy=-4305.117114564319 name=nbu_bent smiles=CCCC config_type=start_7 pbc="F F F"
C       -0.93893180       3.48543904       3.93191850
C        0.14611713       2.60699640       3.20087705
C        1.35817412       2.37254826       4.07221662
C        2.16960803       3.55070088       4.37310602
H       -0.55919483       4.47878037       4.14822663
H       -1.18337686       3.04130721       4.87368846
H       -1.79546950       3.57715864       3.27384866
H        0.45200257       3.09904264       2.24773235
H       -0.36152670       1.70740139       2.97854180
H        1.08814582       1.87736674       5.01417484
H        1.95554411       1.65489827       3.53182718
H        3.10552859       3.29556127       4.92091969
H        1.61349494       4.23303185       4.98401670
H        2.43401848       4.08652273       3.46614380
14
Properties=species:S:1:pos:R:3 energy=-4305.117114564319 name=nbu_bent smiles=CCCC config_type=start_8 pbc="F F F"
C       -3.94531552      -0.74049144       1.28237825
C       -2.88725284      -1.58821922       0.51206609
C       -1.61181776      -1.94504131       1.53558094
C       -0.73192366      -0.61810931       1.66692902
H       -3.65456471       0.25486170       1.48694551
H       -4.29367640      -1.19290491       2.22399580
H       -4.85743541      -0.55405160       0.50613633
H       -2.49484893      -1.09743499      -0.43073292
H       -3.24020609      -2.62056151       0.45723906
H       -1.95901049      -2.48007507       2.52433362
H       -0.99855545      -2.68291545       1.02052398
H        0.29512734      -0.87226910       2.22415699
H       -1.31507131       0.12784360       2.19828153
H       -0.45037898      -0.10299800       0.78660702
14
Properties=species:S:1:pos:R:3 energy=-4305.117114564319 name=nbu_bent smiles=CCCC config_type=start_9 pbc="F F F"
C        0.81589552       1.51860944      -1.24498625
C        1.83328084       0.61775522      -1.89669609
C        3.08618376       0.40908331      -1.27045694
C        3.87205766       1.56689731      -0.74390502
H        1.31011071       2.54058830      -1.00918751
H        0.54549640       1.06535091      -0.26526580
H       -0.08621059       1.58518760      -1.70464833
H        2.02244893       1.08254499      -2.86669708
H        1.25103009      -0.27936849      -2.38889906
H        2.85756849      -0.07441093      -0.37685362
H        3.73439545      -0.29448055      -1.86478998
H        4.69125066       1.28106510      -0.21349899
H        3.33847931       2.25045840      -0.01271553
H        4.18933898       2.11948800      -1.70731102
14
Properties=species:S:1:pos:R:3 energy=-4305.117114564319 name=nbu_bent smiles=CCCC config_type=start_10 pbc="F F F"
C       -1.61946798       0.56445776       0.02947413
C       -0.56351510      -0.61242093      -0.15215575
C        0.73314700      -0.79137213       0.20846041
C        1.64331851       0.50641336      -0.18388501
H       -1.38152457       2.07244855       0.29915443
H       -2.02077306      -0.08293885       1.99953307
H       -2.55338520       0.54922868      -0.10854335
H       -0.10214560      -0.63687735      -1.13587684
H       -0.83684076      -1.98807936      -0.93439238
H        0.34868239      -1.17555970       1.63020368
H        1.34274988      -1.28067163      -0.72877065
H        2.71632758      -0.25656645       0.28664330
H        1.04692209       1.37621124       0.40130428
H        1.92806299       1.26564545      -1.48495693
14
Properties=species:S:1:pos:R:3 energy=-4305.117114564319 name=nbu_bent smiles=CCCC config_type=start_11 pbc="F F F"
C       -1.50995202       0.21366024       0.00791787
C       -0.49045690      -0.35804307      -1.23247425
C        0.74121900      -0.74458587       0.05666359
C        1.49681549       0.44237464       1.10690901
H       -0.96292943       0.72300145       0.17860357
H       -1.72740694      -0.04461515      -0.04080307
H       -2.39026080       0.48190732      -1.08996865
H       -0.37025440       0.62198735      -2.16155316
H       -1.15233524      -0.91185064      -0.99726762
H        0.54987561      -1.37892630       0.51727632
H        1.39309012      -1.69672437      -0.11549535
H        2.27005042       0.66536245       1.72401470
H        0.97648591       1.00209076       1.78426172
H        1.81089701       0.75084455       0.56425293
14
Properties=species:S:1:pos:R:3 energy=-4305.117114564319 name=nbu_bent smiles=CCCC config_type=start_12 pbc="F F F"
C       -1.56521979       0.38889410       0.01870592
C       -0.51498109      -0.49123944      -0.68981066
C        0.73407782      -0.75444848       0.13525181
C        1.56162063       0.46680659       0.45629899
H       -1.17409098       1.39786580       0.23854124
H       -2.06841505      -0.12206625       1.22151168
H       -2.54348258       0.67175452      -0.85819395
H        0.08002964      -0.13041061      -1.62041818
H       -1.06472981      -1.07997346      -0.92404063
H        0.43431762      -1.40862602       0.74938915
H        1.43907652      -1.67016290      -0.13061245
H        2.24614534      -0.00507374       0.93973102
H        1.03546508       1.30064177       1.37516019
H        2.05847887       1.07561290      -0.69714767
14
Properties=species:S:1:pos:R:3 energy=-4305.117114564319 name=nbu_bent smiles=CCCC config_type=start_13 pbc="F F F"
C       -1.56420021       0.38922390       0.01868608
C       -0.53899091      -0.47922456      -0.69481934
C        0.74028818      -0.78150952       0.12987219
C        1.57851337       0.48198141       0.46672501
H       -1.17036302       1.39758420       0.23921676
H       -1.67976495      -0.00548775       0.73721832
H       -2.40016342       0.35938148      -0.34031805
H       -0.55242964       0.11552061      -1.67701182
H       -0.92444619      -1.81995654      -1.00761937
H        0.46424038      -1.14585998       1.39809085
H        1.29676348      -1.30723310      -0.71365355
H        2.74023266       0.41386974       1.07092698
H        0.98794292       1.07766023       0.81040581
H        1.68048113       0.94087710      -0.22355633
14
Properties=species:S:1:pos:R:3 energy=-4305.117114564319 name=nbu_bent smiles=CCCC config_type=start_14 pbc="F F F"
C       -1.56575843       0.38905610       0.02078443
C       -0.53663516      -0.47876727      -0.69596551
C        0.74166377      -0.76598213       0.17631985
C        1.57756708       0.46547620       0.42042320
H       -1.18985298       1.40259250       0.23922403
H       -1.61333644       0.01287725       0.66494431
H       -2.37262306       0.30705902      -0.26582549
H       -0.64270627       0.15340296      -1.68599795
H       -0.98232510      -1.26329736      -0.89395658
H        0.43106125      -1.35267158       0.97296426
H        1.39358544      -1.58854252      -0.21683573
H        2.36097699       0.01843941       0.91809968
H        1.03517778       1.27745741       1.23275628
H        2.00814366       1.06604598      -0.68494430
14
Properties=species:S:1:pos:R:3 energy=-4305.117114564319 name=nbu_bent smiles=CCCC config_type=start_15 pbc="F F F"
C       -1.56366157       0.38906190       0.01660757
C       -0.51733684      -0.49169673      -0.68866449
C        0.73270223      -0.76997587       0.08880415
C        1.56256692       0.48331180       0.50260080
H       -1.15460102       1.39285750       0.23853397
H       -2.13484356      -0.14043125       1.29378569
H       -2.57102294       0.72407698      -0.93268651
H        0.17030627      -0.16829296      -1.61143205
H       -1.00685090      -1.63663264      -1.03770342
H        0.46749675      -1.20181442       1.17451574
H        1.34225456      -1.38885348      -0.62743027
H        2.62540101       0.39035659       1.09255832
H        0.98823022       1.10084459       0.95280972
H        1.73081634       0.95044402      -0.23575970
14
Properties=species:S:1:pos:R:3 energy=-4305.117114564319 name=nbu_bent smiles=CCCC config_type=start_16 pbc="F F F"
C       -1.56492201       0.38833718       0.02088794
C       -0.51432262      -0.46581979      -0.73495371
C        0.74167468      -0.77979828       0.15128042
C        1.55337852       0.46885426       0.48431825
H       -1.17665339       1.38071508       0.23795212
H       -1.89001100      -0.06378739       0.93816644
H       -2.47197499       0.54313618      -0.70325455
H       -0.16711339       0.04769419      -1.68098155
H       -0.90787787      -1.80688043      -0.98182058
H        0.45898704      -1.15042288       1.41755646
H        1.29260245      -1.31387010      -0.67554350
H        2.18404719      -0.01316871       0.96016285
H        1.03572396       1.31036010       1.45743759
H        2.08194947       1.07923943      -0.68931808
14
Properties=species:S:1:pos:R:3 energy=-4305.117114564319 name=nbu_bent smiles=CCCC config_type=start_17 pbc="F F F"
C       -1.56449799       0.38978082       0.01650406
C       -0.53964938      -0.50464421      -0.64967629
C        0.73269132      -0.75615972       0.11384358
C        1.58675548       0.47993374       0.43870575
H       -1.16780061       1.41473492       0.23980588
H       -1.85816900      -0.06376661       1.02056356
H       -2.47167101       0.48799982      -0.49525745
H       -0.30528661      -0.06258419      -1.61644845
H       -1.08129813      -1.09304957      -0.94983942
H        0.43957096      -1.40406312       0.72992354
H        1.44323755      -1.66352590      -0.16872250
H        2.80233081       0.42196471       1.05049515
H        0.98768404       1.06794190       0.72812841
H        1.65701053       0.93725057      -0.23138592
14
Properties=species:S:1:pos:R:3 energy=-4305.117114564319 name=nbu_bent smiles=CCCC config_type=start_18 pbc="F F F"
C       -1.59050155       0.44673586       0.02383885
C       -0.44391074      -0.45717011      -0.68330650
C        0.73685821      -0.86406306       0.11658740
C        1.50161674       0.51059702       0.46569383
H       -1.20275207       1.46607277       0.24484429
H       -1.69615969       0.03691350       1.00490423
H       -2.36534310       0.41606072      -0.62427558
H       -0.12538811       0.03413039      -1.63517913
H       -0.99855458      -1.57689975      -0.98717544
H        0.31860667      -1.48708618       1.02766089
H        1.53709870      -1.64506093      -0.43659408
H        2.40070478       0.25727379       1.01044049
H        0.95585845       1.16539258       1.10776947
H        1.75553238       1.05298808      -0.44669116
14
Properties=species:S:1:pos:R:3 energy=-4305.117114564319 name=nbu_bent smiles=CCCC config_type=start_19 pbc="F F F"
C       -1.53891845       0.33138214       0.01355315
C       -0.61006126      -0.51329389      -0.70132350
C        0.73750779      -0.67189494       0.14853660
C        1.63851726       0.43819098       0.45733017
H       -1.14170193       1.32937723       0.23291371
H       -2.05202031      -0.16446750       0.95382577
H       -2.57830290       0.61507528      -0.57423642
H       -0.34701189      -0.04902039      -1.66225087
H       -0.99062142      -1.32303025      -0.94448456
H        0.57995133      -1.06739982       1.11981911
H        1.19874130      -1.33233507      -0.40767192
H        2.58567322       0.15152221       1.00021751
H        1.06754955       1.21290942       1.07779653
H        1.98342762       0.96350192      -0.47401284
14
Properties=species:S:1:pos:R:3 energy=-4305.117114564319 name=nbu_bent smiles=CCCC config_type=start_20 pbc="F F F"
C       -1.50773330       0.41326709       0.03325923
C       -0.57511304      -0.40996535      -0.69467455
C        0.80994712      -0.78016222       0.14798946
C        1.51377632       0.39791309       0.44049120
H       -1.10362184       1.42633055       0.25553516
H       -2.02240435      -0.07532607       0.93138922
H       -2.54706985       0.71405132      -0.59718650
H       -0.29530110       0.09921806      -1.64984325
H       -0.89844241      -1.46395746      -0.94597266
H        0.48010205      -1.32055244       1.09357283
H        1.47274508      -1.52029757      -0.39188588
H        2.42335056       0.09787616       0.97725932
H        0.98275721       0.94414602       1.05270447
H        1.64873084       0.99758019      -0.51052543
14
Properties=species:S:1:pos:R:3 energy=-4305.117114564319 name=nbu_bent smiles=CCCC config_type=start_21 pbc="F F F"
C       -1.62168670       0.36485091       0.00413277
C       -0.47885896      -0.56049865      -0.68995545
C        0.66441888      -0.75579578       0.11713454
C        1.62635768       0.55087491       0.48253280
H       -1.24083216       1.36911945       0.22222284
H       -1.72577565      -0.05222793       1.02734078
H       -2.39657615       0.31708468      -0.60132550
H       -0.17709890      -0.11410806      -1.64758675
H       -1.09073359      -1.43597254      -0.98568734
H        0.41845595      -1.23393356       1.05390717
H        1.26309492      -1.45709843      -0.45238012
H        2.56302744       0.31091984       1.03339868
H        1.04065079       1.43415598       1.13286153
H        2.09022916       1.01890981      -0.41017857
14
Properties=species:S:1:pos:R:3 energy=-4305.117114564319 name=nbu_bent smiles=CCCC config_type=start_22 pbc="F F F"
C       -1.58074139       0.37303968       0.12400647
C       -0.50614142      -0.43562230      -0.70093204
C        0.68603511      -0.77311931       0.10501519
C        1.60896493       0.43843752       0.44229629
H       -1.18813971       1.38234241       0.34078269
H       -1.85773035      -0.05073905       0.88224743
H       -2.45979403       0.52880045      -0.70544027
H       -0.15455055       0.19594074      -1.63569769
H       -1.20772213      -1.47942508      -1.02781448
H        0.46378587      -1.26360278       0.96775105
H        1.37686733      -1.47148639      -0.52471862
H        2.64621418       0.04621516       0.97487191
H        1.02415087       1.20674443       0.98363346
H        1.88817139       1.02262642      -0.55687910
14
Properties=species:S:1:pos:R:3 energy=-4305.117114564319 name=nbu_bent smiles=CCCC config_type=start_23 pbc="F F F"
C       -1.54867861       0.40507832      -0.08661447
C       -0.54783058      -0.53484170      -0.68369796
C        0.78833089      -0.76283869       0.16010881
C        1.53116907       0.51035048       0.48072771
H       -1.15631429       1.41310759       0.13697531
H       -1.89044965      -0.07681495       1.07648257
H       -2.48385197       0.50233555      -0.49307173
H       -0.31784945      -0.21083074      -1.66173231
H       -0.78145387      -1.42050492      -0.90384552
H        0.43477213      -1.29088322       1.17972895
H        1.35897267      -1.50590961      -0.31954738
H        2.34016382       0.36258084       1.03578609
H        0.99925713       1.17155757       1.20193254
H        1.85078861       0.99386358      -0.36382490
14
Properties=species:S:1:pos:R:3 energy=-4305.117114564319 name=nbu_bent smiles=CCCC config_type=start_24 pbc="F F F"
C       -1.55767049       0.39670798      -0.03378985
C       -0.50663232      -0.42542432      -0.67177791
C        0.67159621      -0.77955377       0.13106004
C        1.61158283       0.42230243       0.46913346
H       -1.16416745       1.40507113       0.18854272
H       -1.85249919       0.01650198       1.04897488
H       -2.44622798       0.59350931      -0.53007599
H       -0.24288929      -0.02364123      -1.63844465
H       -0.98022057      -1.44954825      -0.95037837
H        0.34840508      -1.29813134       1.11353171
H        1.27029597      -1.51306074      -0.38392054
H        2.48162940       0.21337248       1.01896881
H        1.06700834       1.11113081       1.14465784
H        1.92171449       0.92758999      -0.41025411
14
Properties=species:S:1:pos:R:3 energy=-4305.117114564319 name=nbu_bent smiles=CCCC config_type=start_25 pbc="F F F"
C       -1.57174951       0.38141002       0.07118185
C       -0.54733968      -0.54503968      -0.71285209
C        0.80276979      -0.75640423       0.13406396
C        1.52855117       0.52648557       0.45389054
H       -1.18028655       1.39037887       0.28921528
H       -1.89568081      -0.14405598       0.90975512
H       -2.49741802       0.43762669      -0.66843601
H       -0.22951071       0.00875123      -1.65898535
H       -1.00895543      -1.45038175      -0.98128163
H        0.55015292      -1.25635466       1.03394829
H        1.46554403      -1.46433526      -0.46034546
H        2.50474860       0.19542352       0.99168919
H        0.95639966       1.26717119       1.04090816
H        1.81724551       1.08890001      -0.51044989
14
Properties=species:S:1:pos:R:3 energy=-4305.117114564319 name=nbu_bent smiles=CCCC config_type=start_26 pbc="F F F"
C       -1.53963246       0.34969519       0.01646621
C       -0.50394967      -0.47795939      -0.66497001
C        0.72826228      -0.79602445       0.14264712
C        1.55310671       0.50024019       0.42433837
H       -1.22020971       1.47050822       0.24262205
H       -1.92082065      -0.14950634       0.88872090
H       -2.47202845       0.60434024      -0.60051107
H       -0.23397386       0.11773630      -1.61410996
H       -1.08249580      -1.42085172      -0.96311050
H        0.57132210      -1.22296095       1.03597193
H        1.26281136      -1.47361628      -0.42905677
H        2.36929368       0.36908788       0.98483435
H        1.01993736       1.17963221       1.15957312
H        1.88389617       0.96217782      -0.38759873
14
Properties=species:S:1:pos:R:3 energy=-4305.117114564319 name=nbu_bent smiles=CCCC config_type=start_27 pbc="F F F"
C       -1.58978754       0.42842281       0.02092579
C       -0.55002233      -0.49250461      -0.71965999
C        0.74610372      -0.73993355       0.12247688
C        1.58702729       0.44854781       0.49868563
H       -1.12424429       1.32494178       0.23513595
H       -1.82735935       0.02195234       1.07000910
H       -2.47161755       0.42679576      -0.59800093
H       -0.23842614      -0.13262630      -1.68332004
H       -0.90668020      -1.47907828      -0.96854950
H        0.32723590      -1.33152505       1.11150807
H        1.47302864      -1.50377972      -0.41520923
H        2.61708432       0.03970812       1.02582365
H        1.00347064       1.19866979       1.02599288
H        1.85506383       1.05431218      -0.53310527
14
Properties=species:S:1:pos:R:3 energy=-4305.117114564319 name=nbu_bent smiles=CCCC config_type=start_28 pbc="F F F"
C       -1.60391457       0.36365267       0.00966881
C       -0.53782247      -0.46004676      -0.65974244
C        0.77238977      -0.76881992       0.10183034
C        1.55088015       0.45377033       0.46098761
H       -1.10378064       1.44083198       0.25426556
H       -1.82692209      -0.01765461       0.95905106
H       -2.48000154       0.43643770      -0.68898675
H       -0.15875740       0.12713184      -1.59693731
H       -0.81255518      -1.39719793      -0.95942313
H        0.46380660      -1.25966921       1.12847372
H        1.29041585      -1.50564220      -0.35608516
H        2.54681968       0.21508710       1.01733798
H        0.95995390       1.31270487       1.05813506
H        1.96904524       0.93432170      -0.43011272
14
Properties=species:S:1:pos:R:3 energy=-4305.117114564319 name=nbu_bent smiles=CCCC config_type=start_29 pbc="F F F"
C       -1.52550543       0.41446533       0.02772319
C       -0.51614953      -0.51041724      -0.72488756
C        0.70197623      -0.76713808       0.16329366
C        1.58925385       0.49501767       0.46203639
H       -1.24067336       1.35461802       0.22349244
H       -1.92125791      -0.10989939       0.99967894
H       -2.46364446       0.59469830      -0.50952525
H       -0.31364260      -0.14202184      -1.70049269
H       -1.17662082      -1.50273207      -0.97223687
H        0.43475140      -1.29481679       1.01900628
H        1.44542415      -1.47175380      -0.48818084
H        2.43955832       0.19370890       0.99332002
H        1.06345410       1.06559713       1.12743094
H        1.76991476       1.08216830      -0.49059128
14
Properties=species:S:1:pos:R:3 energy=-4305.117114564319 name=nbu_bent smiles=CCCC config_type=start_30 pbc="F F F"
C       -1.57264854       0.38945928       0.01754716
C       -0.55903838      -0.47041009      -0.69491303
C        0.75070402      -0.79726675       0.13233933
C        1.59640508       0.48858699       0.46546688
H       -1.20367369       1.39926013       0.23463068
H       -1.77756395       0.06977279       1.05628105
H       -2.47292334       0.35450403      -0.65819512
H       -0.17537661      -0.03646445      -1.64400499
H       -1.02649723      -1.39110820      -0.96224040
H        0.61025317      -1.19912732       1.05353371
H        1.22784557      -1.46608964      -0.41773001
H        2.43540235       0.17690202       0.99376698
H        1.07299241       1.03649902       1.12650210
H        1.75379597       1.08235349      -0.48856187
14
Properties=species:S:1:pos:R:3 energy=-4305.117114564319 name=nbu_bent smiles=CCCC config_type=start_31 pbc="F F F"
C       -1.55677146       0.38865872       0.01984484
C       -0.49493362      -0.50005391      -0.68971697
C        0.72366198      -0.73869125       0.13278467
C        1.54372892       0.46020101       0.45755712
H       -1.14078031       1.39618987       0.24312732
H       -1.97061605      -0.19732679       0.90244895
H       -2.47072266       0.67663197      -0.54031688
H       -0.29702339       0.02157445      -1.65342501
H       -0.96267877      -1.50882180      -0.96941960
H        0.28830483      -1.35535868       1.09394629
H        1.50799443      -1.51130636      -0.42653599
H        2.55097565       0.23189398       1.01689102
H        0.95041559       1.34180298       1.05906390
H        1.98516403       0.93413651      -0.43214213
14
Properties=species:S:1:pos:R:3 energy=-4305.117114564319 name=nbu_bent smiles=CCCC config_type=start_32 pbc="F F F"
C       -1.52195210       0.38335348       0.02381250
C       -0.51845282      -0.50116159      -0.68971942
C        0.69531867      -0.78512343       0.11208070
C        1.56061537       0.51238510       0.47412785
H       -0.99433687       1.37929162       0.26052970
H       -1.89723085      -0.12058286       0.93330237
H       -2.47445331       0.53920658      -0.61204784
H       -0.22914540       0.02680265      -1.64253397
H       -0.87380430      -1.41275436      -0.94497311
H        0.38654439      -1.27134764       1.14955085
H        1.21325420      -1.52457185      -0.34133709
H        2.53516261       0.12039569       0.99863681
H        0.99950570       1.17529016       1.03779103
H        1.77743492       1.12562872      -0.54327054
14
Properties=species:S:1:pos:R:3 energy=-4305.117114564319 name=nbu_bent smiles=CCCC config_type=start_33 pbc="F F F"
C       -1.60746790       0.39476452       0.01357950
C       -0.53551918      -0.46930241      -0.69491058
C        0.77904733      -0.75083457       0.15304330
C        1.57951863       0.43640290       0.44889615
H       -1.35011713       1.41615838       0.21722830
H       -1.85094915      -0.00697114       1.02542763
H       -2.46919269       0.49192942      -0.58646416
H       -0.24325460      -0.04169265      -1.65489603
H       -1.11537170      -1.48717564      -0.98668689
H        0.51201361      -1.28313836       0.99792915
H        1.52258580      -1.45282415      -0.50292891
H        2.45121539       0.28840031       1.01202119
H        1.02390230       1.20301184       1.14777497
H        1.96152508       0.89086128      -0.37743346
14
Properties=species:S:1:pos:R:3 energy=-4305.117114564319 name=nbu_bent smiles=CCCC config_type=start_34 pbc="F F F"
C       -1.56135223       0.43202053       0.02541860
C       -0.54960078      -0.52924557      -0.68898841