14
Properties=species:S:1:pos:R:3 energy=-4305.138647313924 name=nbu_straight smiles=CCCC config_type=start_0 pbc="F F F"
C       -1.86887567      -0.14678826      -0.17371606
C       -1.44120154       0.06787671       0.73110227
C        0.81680841      -0.71647475      -0.23568241
C        2.54364318       0.59928336       0.95493735
H       -2.73288883      -0.31809905       0.42187556
H       -3.27057111       0.75918682      -0.69696586
H       -2.73329229      -0.03298209      -0.84228684
H       -1.63235428       0.73817123       1.55177131
H       -0.42693395      -2.10142929       0.97892866
H        0.49053188      -1.81937611      -1.18704436
H        1.31557096       0.07937040      -0.70393717
H        2.42073965       1.26736783       1.76372478
H        2.59689157       0.21814630       1.57455892
H        4.07101006       0.67078897       0.32803893
14
Properties=species:S:1:pos:R:3 energy=-4305.138647313924 name=nbu_straight smiles=CCCC config_type=start_1 pbc="F F F"
C       -1.90985033      -0.20916574      -0.18349594
C        0.16530554      -0.50066271       0.66987173
C        0.48852759       0.91383675       0.10903841
C        1.26461082      -0.47943536       0.67646265
H       -2.86857517      -0.50137295       0.38160244
H       -0.78389089       0.88203718      -0.57074814
H       -0.90828171      -1.78939391      -1.16584316
H        0.13302428       0.26688477       1.52035869
H       -0.66512605      -0.32979671       1.36132734
H        1.03795812       0.57928011      -0.61112164
H       -0.19385096       2.11669160      -0.36147683
H        1.25044435       0.31832617       1.51910922
H        1.48711643      -2.09579630       0.96662308
H        1.55992594      -0.08701497       0.14274707
14
Properties=species:S:1:pos:R:3 energy=-4305.138647313924 name=nbu_straight smiles=CCCC config_type=start_2 pbc="F F F"
C       -1.57798268      -0.09697628      -0.09363787
C       -0.79612180      -0.41204974       1.55210584
C        0.70039520       0.33724443      -1.44711479
C        1.64483704      -0.11614837       1.35486382
H       -1.47407454      -0.03088727       0.66586635
H       -1.73675313       0.81674657      -0.10177096
H       -1.76216266      -1.22262196       0.90524547
H       -1.94326221       0.02142038       2.23432098
H       -1.52631024      -1.22566490      -0.43976586
H        1.25448303      -0.19855266      -2.66030883
H        0.96915801       1.52108307      -2.44388287
H        0.52989344       0.28803227       2.01524695
H        1.99964327      -1.19002993       2.88116806
H        2.93773793       0.32288996       0.21920974
14
Properties=species:S:1:pos:R:3 energy=-4305.138647313924 name=nbu_straight smiles=CCCC config_type=start_3 pbc="F F F"
C       -2.20074332      -0.25897772      -0.26357413
C       -0.47977420      -0.02073626      -0.15113184
C        0.60494080      -0.13988243       1.32047079
C        2.16341696       0.23599637       0.27653618
H       -4.12738946      -0.78858473       0.13761165
H       -2.31770887       0.82447743      -1.16594304
H       -1.87941134      -0.59975404      -2.91337547
H        0.44393221       0.98363562       0.83780902
H        0.43425024      -1.20556110       2.78002186
H        0.27400697      -1.04154334       0.86214283
H        0.15256199       0.67497893       1.37846887
H        3.14129056       1.29766173       1.26758705
H        2.08436473      -0.68762007      -0.33998606
H        2.69319807       0.26088404       0.25157626
14
Properties=species:S:1:pos:R:3 energy=-4305.138647313924 name=nbu_straight smiles=CCCC config_type=start_4 pbc="F F F"
C       -5.61687280       4.26782053      -3.13286155
C       -4.35832849       4.29129107      -2.36827058
C       -3.10097676       4.62869536      -3.07474184
C       -1.89467772       4.51859546      -1.95776542
H       -6.45758716       3.91348003      -2.56028163
H       -5.69023437       5.31741794      -3.83510497
H       -5.51896955       3.53141977      -4.03038387
H       -4.54494483       5.13375302      -1.53000547
H       -4.37304448       3.44705495      -1.83571797
H       -2.93654145       3.89371509      -4.04750664
H       -3.19400709       5.57771347      -3.45746801
H       -2.03261637       5.37241552      -1.11741555
H       -1.73743821       3.45671437      -1.46324108
H       -0.98789057       4.70315043      -2.45423856
14
Properties=species:S:1:pos:R:3 energy=-4305.138647313924 name=nbu_straight smiles=CCCC config_type=start_5 pbc="F F F"
C        1.83814680      -4.62377453       2.77564955
C        3.08243249      -4.72407707       3.76924458
C        4.40631276      -4.43133336       2.94809784
C        5.70293172      -4.39874746       3.58916542
H        0.85612316      -4.73295203       3.36375963
H        1.63577237      -3.67619394       2.56739097
H        1.87739555      -5.35379577       2.02225387
H        3.04561483      -4.12869702       4.60213547
H        3.28098448      -5.87828095       4.17597397
H        4.46503145      -5.13381109       2.24934064
H        4.31572709      -3.38165147       2.39205401
H        5.70380037      -3.78672152       4.40024955
H        5.82144621      -5.33436437       4.00442308
H        6.61882657      -4.11937643       2.92502456
14
Properties=species:S:1:pos:R:3 energy=-4305.138647313924 name=nbu_straight smiles=CCCC config_type=start_6 pbc="F F F"
C       -3.03187245      -5.83116766      -7.32314013
C       -1.86686056      -5.86200382      -6.40747669
C       -0.48110148      -5.63511107      -7.25611435
C        0.80951985      -5.55661825      -6.32586094
H       -3.91997050      -6.03494776      -6.73572062
H       -3.28829490      -4.84847021      -7.74388635
H       -3.05563390      -6.50086218      -8.07535431
H       -2.00614525      -5.16911651      -5.57784202
H       -1.70183651      -6.98014897      -6.03127669
H       -0.40216089      -6.37955106      -8.09329982
H       -0.51198994      -4.64136430      -7.75161760
H        0.71761798      -4.85081917      -5.50744082
H        0.94328910      -6.49616568      -5.83379724
H        1.78476647      -5.32825350      -6.93337474
14
Properties=species:S:1:pos:R:3 energy=-4305.138647313924 name=nbu_straight smiles=CCCC config_type=start_7 pbc="F F F"
C       -0.74685355       5.47521366       6.96592813
C        0.59096456       5.42921782       7.80845069
C        1.78643748       5.83247307       7.12947035
C        2.99873415       5.67646625       7.95726094
H       -1.68149350       5.21547576       7.53919862
H       -0.76616710       6.48969421       6.47617235
H       -0.58594010       4.67848618       6.06722431
H        0.50681525       6.17417251       8.64997202
H        0.60977651       4.54892297       8.37153269
H        1.93065089       5.13945506       6.29513382
H        1.63370994       6.83742630       6.68620360
H        2.95356602       6.43651317       8.79027482
H        3.14071890       4.61851568       8.37497924
H        3.84616953       5.91202750       7.40416074
14
Properties=species:S:1:pos:R:3 energy=-4305.138647313924 name=nbu_straight smiles=CCCC config_type=start_8 pbc="F F F"
C       -6.23573415      -2.24024452       2.12855158
C       -4.94718597      -2.23016293       2.89937598
C       -3.63600101      -2.05033093       2.49822841
C       -2.29871371      -1.93470502       3.01648032
H       -7.33283986      -2.49630936       2.68038627
H       -6.44477118      -1.24088410       1.63851755
H       -6.17629943      -2.86403728       1.01409605
H       -4.87337490      -1.48751236       3.75978587
H       -4.64594894      -3.35282005       3.76828475
H       -3.63266993      -2.81610887       1.74932649
H       -3.75971328      -1.08230179       2.10121223
H       -2.17750118      -1.17286918       3.86668227
H       -2.20608708      -2.87649834       3.28894593
H       -1.41999564      -1.73695585       2.51201828
14
Properties=species:S:1:pos:R:3 energy=-4305.138647313924 name=nbu_straight smiles=CCCC config_type=start_9 pbc="F F F"
C        2.45700815       1.88429052      -2.48576358
C        3.67128997       1.79737693      -1.49840198
C        4.94133701       2.24769293      -2.62487241
C        6.10696771       2.05455302      -1.38508032
H        1.73137586       1.67683736      -1.87690827
H        2.39030918       2.88210810      -2.90623155
H        2.53472543       1.04166128      -3.02222605
H        3.37404490       2.49256836      -0.68765587
H        3.55388894       0.92159405      -1.42802875
H        5.16115993       1.57601287      -3.54749249
H        4.88143328       3.27836379      -3.16662623
H        5.84868518       2.75856318      -0.58384827
H        6.29009508       0.99884834      -0.74776393
H        7.05093164       2.32072985      -2.04123228
14
Properties=species:S:1:pos:R:3 energy=-4305.138647313924 name=nbu_straight smiles=CCCC config_type=start_10 pbc="F F F"
C       -1.98933694       0.14225587      -0.15892791
C       -0.70464071      -0.44860715       1.68667835
C        0.64529931       0.05597118       0.07524890
C        2.03786535       0.11838309      -0.36262833
H       -3.18285533       0.82213503       0.51178638
H       -2.29503640       0.78562741       1.22870655
H       -1.96969852      -0.84973229      -0.10815037
H       -0.50491627      -0.64665298       2.47237509
H       -0.25802426      -2.19807091       1.22752498
H        0.58058155      -0.43440054       0.11687603
H        0.51490587       1.47783345      -1.09254819
H        2.24298545      -0.04875509       0.32928243
H        2.10630314      -0.59730129       0.00812936
H        2.92242541       0.76183378      -1.63527111
14
Properties=species:S:1:pos:R:3 energy=-4305.138647313924 name=nbu_straight smiles=CCCC config_type=start_11 pbc="F F F"
C       -1.78938906      -0.49820987      -0.19828409
C       -0.57125529       0.01582115      -0.28570435
C        0.66003669       0.14139082      -0.20189290
C        1.77038865       0.00146491       1.99402833
H       -2.41860867      -1.64160703       0.29169162
H       -1.75942560       0.85559659      -2.49642055
H       -1.67187548      -0.97264371      -1.89997963
H       -0.99441373       1.65170898       0.59975491
H       -0.83403574      -0.23315509       1.11273102
H        0.94790845      -0.80569546      -1.91504203
H        0.60681413       0.71822855       0.02713419
H        1.42819855       1.63444909       2.95355157
H        1.97770486      -1.28034871       2.53305264
H        2.70851059      -0.17805978       2.10605711
14
Properties=species:S:1:pos:R:3 energy=-4305.138647313924 name=nbu_straight smiles=CCCC config_type=start_12 pbc="F F F"
C       -1.89029374      -0.17827806      -0.17858789
C       -0.61603014      -0.22736104       0.70505929
C        0.64699874       0.12338425      -0.05841110
C        1.88870612       0.04607134       0.80618238
H       -2.80413515      -0.40947893       0.40112235
H       -2.38201839       0.71419088      -0.19175967
H       -1.95161889      -0.62603174      -1.47681885
H       -0.17231132       0.27802454       1.58772769
H       -0.67409084      -0.54010397       1.24642461
H        0.73692939      -0.85991947      -1.49126392
H        0.69077344       0.76672294      -0.00046572
H        1.38455404       0.41040567       1.52165202
H        2.08538561      -0.73527164       1.78613886
H        3.16053116       0.41488339      -0.19693477
14
Properties=species:S:1:pos:R:3 energy=-4305.138647313924 name=nbu_straight smiles=CCCC config_type=start_13 pbc="F F F"
C       -1.88843226      -0.17767594      -0.17862411
C       -0.65986586      -0.20542496       0.69591471
C        0.65833726       0.07397775      -0.06823290
C        1.91954788       0.07377666       0.82521762
H       -2.79732885      -0.40999307       0.40235565
H       -1.67244361       0.92703312      -1.07595433
H       -1.68995511      -1.19634426      -0.53131115
H       -1.32701868       0.72703146       1.48440231
H       -0.41796916      -1.89112203       1.09383139
H        0.79156061      -0.38017653      -0.30690208
H        0.43094656       1.42933906      -1.06494828
H        2.28662996       1.17528833       1.76118198
H        1.99862239      -1.14237836       0.75504314
H        2.47040484       0.16889061       0.66772077
14
Properties=species:S:1:pos:R:3 energy=-4305.138647313924 name=nbu_straight smiles=CCCC config_type=start_14 pbc="F F F"
C       -1.89127716      -0.17798229      -0.17479307
C       -0.65556487      -0.20459008       0.69382210
C        0.66084873       0.10232677       0.01656853
C        1.91782022       0.04364241       0.74068246
H       -2.83291249      -0.40084921       0.40236894
H       -1.55116231       0.96056287      -1.20790802
H       -1.63967351      -1.29187156      -0.39530696
H       -1.49184051       0.79619485       1.46799596
H       -0.52364112      -0.87480607       1.30135032
H        0.73098409      -0.75776111      -1.08307349
H        0.60771847       0.91574069      -0.15788718
H        1.59420701       0.45333461       1.48215879
H        2.08486107      -0.77760029       1.52614607
H        3.06863205       0.39741668      -0.17465457
14
Properties=species:S:1:pos:R:3 energy=-4305.138647313924 name=nbu_straight smiles=CCCC config_type=start_15 pbc="F F F"
C       -1.88744884      -0.17797171      -0.18241893
C       -0.62033113      -0.22819592       0.70715190
C        0.64448727       0.09503523      -0.14321253
C        1.89043378       0.07620559       0.89071754
H       -2.76855151      -0.41862279       0.40110906
H       -2.50329969       0.68066113      -0.05980598
H       -2.00190049      -0.53050444      -1.61282304
H       -0.00748949       0.20886115       1.60413404
H       -0.56841888      -1.55641993       1.03890568
H        0.79750591      -0.48233489      -0.71509251
H        0.51400153       1.28032131      -0.90752682
H        2.07697699       1.13235939       1.80067521
H        1.99914693      -1.10004971       1.01503593
H        2.56230395       0.18635732       0.64544057
14
Properties=species:S:1:pos:R:3 energy=-4305.138647313924 name=nbu_straight smiles=CCCC config_type=start_16 pbc="F F F"
C       -1.88975008      -0.17929486      -0.17460409
C       -0.61482793      -0.18095131       0.62263972
C        0.66086864       0.07710205      -0.02914700
C        1.87365814       0.04980986       0.85733832
H       -2.80881345      -0.44079172       0.40004676
H       -2.05629864       0.82059304      -0.70907494
H       -1.82106449      -0.86085562      -1.19393950
H       -0.62353069       0.60319792       1.47715461
H       -0.38771969      -1.86724843       1.14093333
H        0.78196938      -0.38850720      -0.27136290
H        0.42334960       1.41722161      -0.99536916
H        1.27117885       0.39562635       1.55895527
H        2.08585825      -0.71752848       1.93635615
H        3.20338241       0.42150451      -0.18263996
14
Properties=species:S:1:pos:R:3 energy=-4305.138647313924 name=nbu_straight smiles=CCCC config_type=start_17 pbc="F F F"
C       -1.88897592      -0.17665914      -0.18260791
C       -0.66106807      -0.25183469       0.77833428
C        0.64446736       0.12025995      -0.09749700
C        1.93459586       0.07003814       0.77406168
H       -2.79265055      -0.37868028       0.40343124
H       -1.99816336       0.82063096      -0.55863906
H       -1.82050951      -0.96152038      -0.81419050
H       -0.87579931       0.40185808       1.59497539
H       -0.70434031      -0.56397757       1.19932267
H        0.74652062      -0.85158880      -1.52680310
H        0.69837040       0.77884039      -0.07004484
H        2.40000515       1.19006765       1.72387873
H        1.99814975      -1.16012152       0.60482585
H        2.42755359       0.16226949       0.65342596
14
Properties=species:S:1:pos:R:3 energy=-4305.138647313924 name=nbu_straight smiles=CCCC config_type=start_18 pbc="F F F"
C       -1.93645172      -0.07267394      -0.16921649
C       -0.48627402      -0.16515923       0.71693420
C        0.65207502      -0.07674369      -0.09248749
C        1.77915450       0.12602138       0.82333494
H       -2.85646289      -0.28495061       0.41263007
H       -1.70237619       1.00444686      -0.58722897
H       -1.62638218      -1.09286260      -1.04974430
H       -0.54735109       0.57843393       1.56077801
H       -0.55327195      -1.44736309       1.13115674
H        0.52567107      -1.00316748      -0.98321156
H        0.86973663       0.81255266      -0.55910921
H        1.66673969       0.88938454       1.65074925
H        1.94004444      -0.98220175       1.29795242
H        2.60742905       0.37357632       0.26033417
14
Properties=species:S:1:pos:R:3 energy=-4305.138647313924 name=nbu_straight smiles=CCCC config_type=start_19 pbc="F F F"
C       -1.84227428      -0.28328006      -0.18799551
C       -0.78962198      -0.26762677       0.68403980
C        0.65326098       0.27410569      -0.03415651
C        2.02909950      -0.00617338       0.80806506
H       -2.74500111      -0.53452139       0.39084793
H       -2.35208581       0.63677714      -0.68048503
H       -2.01519182      -0.72951340      -0.95838570
H       -0.95197891       0.42662207       1.51135199
H       -0.53878805      -0.98386291       1.20909926
H        1.00281893      -0.23692852      -0.81495444
H        0.25198337       1.38350934      -0.50630479
H        2.00444431       0.69630946       1.63208475
H        2.14396356      -0.89544825       1.24322958
H        3.02350695       0.21019768       0.21045183
14
Properties=species:S:1:pos:R:3 energy=-4305.138647313924 name=nbu_straight smiles=CCCC config_type=start_20 pbc="F F F"
C       -1.78533825      -0.13377928      -0.15201729
C       -0.72581556      -0.07897553       0.69617907
C        0.78551650       0.07643758      -0.03515544
C        1.80135475      -0.07971039       0.77732145
H       -2.67547668      -0.35750965       0.43214885
H       -2.29801472       0.79952638      -0.72144839
H       -1.95816833      -0.54880870      -1.00028663
H       -0.85756835       0.69726722       1.53400511
H       -0.37049296      -1.24115961       1.20638238
H        0.82051993      -0.69911986      -0.86287338
H        0.75224353       1.04033833      -0.47748356
H        1.70808504       0.59836562       1.59016901
H        1.98915464      -1.38614085       1.19741795
H        2.41243702       0.27241581       0.14378927
14
Properties=species:S:1:pos:R:3 energy=-4305.138647313924 name=nbu_straight smiles=CCCC config_type=start_21 pbc="F F F"
C       -1.99338775      -0.22217472      -0.20519471
C       -0.55008044      -0.35381047       0.70479493
C        0.51981950       0.12092442      -0.09148856
C        2.00689925       0.19955839       0.85407855
H       -2.92598732      -0.46196235       0.37132915
H       -1.75644728       0.84169762      -0.54626561
H       -1.68340567      -1.27356730      -1.00784337
H       -0.64176165       0.30778878       1.53812489
H       -0.72156704      -1.19006639       1.13387362
H        0.70797007      -0.54097614      -0.93529262
H        0.36947647       1.15572367      -0.58793044
H        1.96309896       0.98732838       1.69266499
H        2.09485336      -0.49150915       1.34376405
H        3.21849898       0.31135819       0.32699673
14
Properties=species:S:1:pos:R:3 energy=-4305.138647313924 name=nbu_straight smiles=CCCC config_type=start_22 pbc="F F F"
C       -1.91863218      -0.20722414       0.01366373
C       -0.59989118      -0.12581850       0.68475451
C        0.55928516       0.08929613      -0.11361537
C        1.97514458      -0.00572324       0.78061708
H       -2.82978450      -0.43782065       0.58778884
H       -1.99736250       0.84441592      -0.81116862
H       -1.79882520      -0.88702897      -1.19793007
H       -0.60059418       0.87385786       1.55983125
H       -0.93515791      -1.26939950       1.05696033
H        0.79073081      -0.59514448      -1.09259147
H        0.57719552       1.12945495      -0.72000187
H        2.11497648       0.50404596       1.58581021
H        2.06472878      -0.90670394       1.07131211
H        2.84959366       0.31814377       0.05915944
14
Properties=species:S:1:pos:R:3 energy=-4305.138647313924 name=nbu_straight smiles=CCCC config_type=start_23 pbc="F F F"
C       -1.86009382      -0.14872986      -0.37087573
C       -0.67600482      -0.30696750       0.71621949
C        0.74605084       0.10806587      -0.01302863
C        1.83310942       0.12557124       0.85078292
H       -2.77167950      -0.38165135       0.21568916
H       -2.05709950       0.79680808      -0.45654538
H       -1.84274880      -0.93534703      -0.81019993
H       -0.89873582       0.13119814       1.51229875
H       -0.15690209      -1.16182650       1.28329567
H        0.73775919      -0.64495152      -0.70557453
H        0.54452448       1.06660705      -0.34541213
H        1.55620752       1.08164804       1.69702379
H        2.01927922      -0.97094606       1.46986989
H        2.78134234       0.26563023       0.41162656
14
Properties=species:S:1:pos:R:3 energy=-4305.138647313924 name=nbu_straight smiles=CCCC config_type=start_24 pbc="F F F"
C       -1.87651067      -0.16401194      -0.27443162
C       -0.60078744      -0.10719961       0.73798242
C        0.53292345       0.07754846      -0.06606419
C        1.97992418      -0.03518176       0.82961482
H       -2.78601734      -0.39632386       0.30983795
H       -1.98781175       0.96718070      -0.50676734
H       -1.77405709      -0.76888728      -0.87776015
H       -0.76187792       0.47295787       1.55481601
H       -0.51979878      -1.21485213       1.19833868
H        0.58007527      -0.65818472      -0.82643360
H        0.38262372       1.05355093      -0.46294092
H        1.81448715       0.80923208       1.66631977
H        2.14297544      -1.08126973       1.36530106
H        2.91083470       0.14463176       0.32685881
14
Properties=species:S:1:pos:R:3 energy=-4305.138647313924 name=nbu_straight smiles=CCCC config_type=start_25 pbc="F F F"
C       -1.90221533      -0.19194206      -0.08278038
C       -0.67510856      -0.32558639       0.66299158
C        0.77241255       0.11981354      -0.06057981
C        1.82832982       0.15502976       0.80178518
H       -2.81544666      -0.42314814       0.49364005
H       -2.06665025       0.67404330      -0.76094666
H       -1.86751691      -1.05348872      -1.13036985
H       -0.73745208       0.53209813       1.51731399
H       -0.57226122      -1.21637387       1.14191732
H        0.94841473      -0.58191128      -0.97173240
H        0.73909628       1.14251107      -0.60247308
H        1.85669685       0.77646192       1.61651423
H        1.94103256      -0.79638027       1.17588094
H        2.72010130       0.43914224       0.14392719
14
Properties=species:S:1:pos:R:3 energy=-4305.138647313924 name=nbu_straight smiles=CCCC config_type=start_26 pbc="F F F"
C       -1.84357788      -0.24984516      -0.18267703
C       -0.59588961      -0.20311508       0.75041188
C        0.63638106       0.04747725      -0.04490917
C        1.87316188       0.10711246       0.74783055
H       -2.88833605      -0.27685263       0.40857284
H       -2.11254911       0.66409236      -0.79934973
H       -1.82116209      -0.74911280      -1.00635643
H       -0.74560065       0.73107674       1.59924487
H       -0.70652695      -1.16245967       1.17509311
H        0.98706420      -0.52094298      -0.96803774
H        0.36895877       1.12556632      -0.54534801
H        1.60939112       1.09352820       1.60399906
H        2.05703599      -0.95620385       1.39253253
H        2.84178821       0.20778023       0.36822169
14
Properties=species:S:1:pos:R:3 energy=-4305.138647313924 name=nbu_straight smiles=CCCC config_type=start_27 pbc="F F F"
C       -1.93514812      -0.10610884      -0.17453497
C       -0.68000639      -0.22967092       0.65056212
C        0.66895494       0.14988475      -0.08173483
C        1.93509212       0.01273554       0.88356945
H       -2.71312795      -0.54261937       0.39490516
H       -1.94191289       0.97713164      -0.46836427
H       -1.82041191      -1.07326320      -1.00177357
H       -0.75372935       0.27397926       1.47288513
H       -0.38553305      -1.26876633       1.16516289
H        0.54142580      -0.71915302      -0.83012826
H        0.75276123       1.07049568      -0.52006599
H        2.06179288       0.49216580       1.67883494
H        2.02697201      -0.92144615       1.14864947
H        2.78914779       0.37599377       0.10256431
14
Properties=species:S:1:pos:R:3 energy=-4305.138647313924 name=nbu_straight smiles=CCCC config_type=start_28 pbc="F F F"
C       -1.96094042      -0.22436240      -0.19508732
C       -0.65773259      -0.17041125       0.75995608
C        0.71694647       0.09714569      -0.11943008
C        1.86909677       0.02227051       0.81474260
H       -2.67576662      -0.33103379       0.42983088
H       -1.94111458       0.90481959      -0.67094501
H       -1.83571890      -1.05565950      -1.16789018
H       -0.60827480       0.74823057       1.63059769
H       -0.21368506      -1.11927395       1.18182529
H        0.79076866      -0.58796280      -0.79915336
H        0.41935743       1.06709527      -0.41212069
H        1.93350778       0.81236254       1.66334231
H        1.94752167      -0.71324752       1.20733281
H        2.99724842       0.15692214       0.29060211
14
Properties=species:S:1:pos:R:3 energy=-4305.138647313924 name=nbu_straight smiles=CCCC config_type=start_29 pbc="F F F"
C       -1.81778558      -0.13159160      -0.16212468
C       -0.61816341      -0.26237475       0.64101792
C        0.58838953       0.10021631      -0.00721392
C        1.93915723       0.09757749       0.81665740
H       -2.92569738      -0.48843821       0.37364712
H       -2.11334742       0.73640441      -0.59676899
H       -1.80585510      -0.76671650      -0.84023982
H       -0.89105520       0.25682543       1.44153231
H       -0.87837494      -1.31195205       1.15843071
H        0.73772134      -0.65213320      -0.99901264
H        0.70236257       1.12896673      -0.65329331
H        1.73767622       0.77333146       1.61949169
H        2.13648633      -1.16440248       1.33384919
H        2.63368758       0.42685186       0.18018389
14
Properties=species:S:1:pos:R:3 energy=-4305.138647313924 name=nbu_straight smiles=CCCC config_type=start_30 pbc="F F F"
C       -1.90385672      -0.17724620      -0.18070348
C       -0.69646737      -0.18933202       0.69574366
C        0.67735389       0.04520914      -0.06372854
C        1.95221353       0.08583674       0.82292060
H       -2.85814553      -0.40693325       0.39398266
H       -1.85099935       1.06443944      -0.49342815
H       -1.82279594      -1.20524923      -1.11167262
H       -0.63861718       0.44954597       1.54466426
H       -0.60428801      -1.10815568       1.17668167
H        1.05814228      -0.47742894      -0.93597447
H        0.30512025       1.13930802      -0.52466827
H        1.73008850       0.74264643       1.62030773
H        2.15390081      -1.21752812       1.33215337
H        2.60425882       0.42718998       0.18388906
14
Properties=species:S:1:pos:R:3 energy=-4305.138647313924 name=nbu_straight smiles=CCCC config_type=start_31 pbc="F F F"
C       -1.87486928      -0.17870780      -0.17650852
C       -0.57942863      -0.24345398       0.70523034
C        0.62798211       0.15215286      -0.06291546
C        1.85604047       0.03401126       0.80847940
H       -2.74331847      -0.41253875       0.40949534
H       -2.20346265       0.57678456      -0.77428585
H       -1.81877806      -0.61712677      -0.89645738
H       -0.86071282       0.55551003       1.52746574
H       -0.48777199      -1.32307032       1.16357433
H        0.47034772      -0.76266706      -0.86219153
H        0.81659975       1.05675398      -0.54074573
H        1.94109550       0.84304757       1.66252627
H        1.93010719      -0.66012188       1.20902863
H        3.02667718       0.15658402       0.28689694
14
Properties=species:S:1:pos:R:3 energy=-4305.138647313924 name=nbu_straight smiles=CCCC config_type=start_32 pbc="F F F"
C       -1.81129811      -0.18839380      -0.16926460
C       -0.62236861      -0.24547632       0.70522586
C        0.57623453       0.06737969      -0.10071557
C        1.88687077       0.12928594       0.83873328
H       -2.47595054      -0.44339059       0.44126758
H       -2.06948021       0.71689916      -0.71795547
H       -1.82558926      -0.86803006      -1.02741960
H       -0.73678513       0.56505536       1.54734997
H       -0.32551014      -1.14767598       1.20820730
H        0.64970779      -0.60928460      -0.76067195
H        0.27848018       1.03253461      -0.38519452
H        1.91222497       0.63948047       1.62919878
H        2.01973306      -0.96413131       1.17018986
H        2.64741744       0.50619936       0.08400515
14
Properties=species:S:1:pos:R:3 energy=-4305.138647313924 name=nbu_straight smiles=CCCC config_type=start_33 pbc="F F F"
C       -1.96742789      -0.16756020      -0.18794740
C       -0.65352739      -0.18730968       0.69574814
C        0.72910147       0.12998231      -0.02592843
C        1.92138323      -0.00943794       0.79266672
H       -3.12551346      -0.37608141       0.36221042
H       -1.98498179       0.92432484      -0.54975853
H       -1.81598474      -0.95434594      -0.98071040
H       -0.76254487       0.44000064       1.52478003
H       -0.76654986      -1.28355002       1.13204870
H        0.87878221      -0.63081140      -1.03749405
H        0.84323982       1.16352739      -0.68021948
H        1.75895903       0.94621353       1.65363522
H        2.06427494      -0.91351869       1.37099214
H        2.98351856       0.07757464       0.38678085
14
Properties=species:S:1:pos:R:3 energy=-4305.138647313924 name=nbu_straight smiles=CCCC config_type=start_34 pbc="F F F"