14
Properties=species:S:1:pos:R:3 energy=-4305.117114564319 name=nbu_bent smiles=CCCC config_type=start_0 pbc="F F F"
C       -1.56116149       0.39446105       0.01954296
C       -0.66611359      -0.43599504      -0.68701228
C        0.76561295      -0.90916812       0.10270830
C        1.68083445       0.56781378       0.48562862
H       -1.16047622       1.41359699       0.24236675
H       -2.08944282      -0.07441615       0.96843422
H       -2.62987355       0.66767773      -0.57123520
H       -0.38908627       0.03336960      -1.64599459
H       -0.97395996      -1.60339288      -0.99894670
H        0.40187050      -1.48497272       1.02386363
H        1.49863977      -1.66513519      -0.45179093
H        2.59453955       0.28658742       1.02651333
H        1.10781335       1.38954431       1.14543179
H        2.08694626       1.07387275      -0.44430525
14
Properties=species:S:1:pos:R:3 energy=-4305.117114564319 name=nbu_bent smiles=CCCC config_type=start_1 pbc="F F F"
C       -1.56825851       0.38365695       0.01784904
C       -0.38785841      -0.53446896      -0.69761772
C        0.70875305      -0.62678988       0.16241570
C        1.45929955       0.38097422       0.43739538
H       -1.18397778       1.38185301       0.23539125
H       -1.65873718      -0.05313785       0.99029578
H       -2.31377245       0.36345827      -0.62727680
H       -0.08331373      -0.04825960      -1.65143541
H       -1.01521604      -1.29653712      -0.93271330
H        0.49668750      -1.06951328       1.12361637
H        1.23720023      -1.31226081      -0.39247507
H        2.39183845       0.12220858       0.98414467
H        0.91559465       0.98875769       1.04013421
H        1.65201374       0.94261725      -0.47639875
14
Properties=species:S:1:pos:R:3 energy=-4305.117114564319 name=nbu_bent smiles=CCCC config_type=start_2 pbc="F F F"
C       -1.51077735       0.40308874       0.03341291
C       -0.55438251      -0.51912074      -0.54481029
C        0.74544959      -0.72665860      -0.10711794
C        1.52515666       0.44389737       0.55489791
H       -0.94244319       1.46334352       0.28462720
H       -1.82377776      -0.06444651       1.07152501
H       -2.46166897       0.46162606      -0.26855373
H       -0.44293710      -0.09077528      -1.52777352
H       -1.16437752      -1.45170604      -1.24467180
H        0.53419072      -1.20423787       0.76868674
H        1.43863929      -1.41542323      -0.75315837
H        2.26703538       0.11696152       1.07007825
H        1.00436691       1.14564103       1.37174313
H        1.89065777       1.01361487      -0.46315502
14
Properties=species:S:1:pos:R:3 energy=-4305.117114564319 name=nbu_bent smiles=CCCC config_type=start_3 pbc="F F F"
C       -1.61864265       0.37502926       0.00397909
C       -0.49958949      -0.45134326      -0.83981971
C        0.72891641      -0.80929940       0.37224194
C        1.61497734       0.50489063       0.36812609
H       -1.40201081       1.33210648       0.19313080
H       -1.92440224      -0.06310749       0.88720499
H       -2.48197703       0.56950994      -0.92995827
H       -0.02946290       0.07588528      -1.76965648
H       -0.82479848      -1.44822396      -0.68698820
H        0.36436728      -1.35024813       1.37879326
H        1.29720071      -1.56197277      -0.09110763
H        2.71934262       0.29183448       0.94057975
H        1.01904109       1.23266097       0.81382287
H        1.84830223       1.00287513      -0.45754898
14
Properties=species:S:1:pos:R:3 energy=-4305.117114564319 name=nbu_bent smiles=CCCC config_type=start_4 pbc="F F F"
C       -2.21033364       1.15909372      -0.49299607
C       -1.17137480       0.29552178      -1.22383940
C        0.08703266       0.01664250      -0.38903122
C        0.91209472       1.24665855      -0.01886630
H       -1.80561289       2.14652798      -0.27415802
H       -2.50854079       0.71509264       0.42489259
H       -3.11236701       1.28505024      -1.12342980
H       -0.89356175       0.79470670      -2.17977398
H       -1.65744635      -0.64236722      -1.48645779
H       -0.19171602      -0.49543630       0.52841703
H        0.71755794      -0.71279424      -0.92871647
H        1.82319566       0.99760254       0.52748519
H        0.35708541       1.95048075       0.61926939
H        1.21071897       1.77229824      -0.92620985
14
Properties=species:S:1:pos:R:3 energy=-4305.117114564319 name=nbu_bent smiles=CCCC config_type=start_5 pbc="F F F"
C       -0.91908636      -0.38097572       0.53038807
C        0.11740280      -1.26598578      -0.16079060
C        1.38733334      -1.55260050       0.65415522
C        2.22803928      -0.29787055       0.94189030
H       -0.53884111       0.64892202       0.75191602
H       -1.23963921      -0.84264664       1.53383741
H       -1.83127899      -0.25391424      -0.07508220
H        0.42116175      -0.80959670      -1.11765602
H       -0.33172965      -2.25756278      -0.44520221
H        1.09027402      -2.05904970       1.61906297
H        2.01828206      -2.26460176       0.08445047
H        3.16318234      -0.58880654       1.48317281
H        1.66632259       0.42782125       1.56629661
H        2.52824103       0.24419176       0.00550585
14
Properties=species:S:1:pos:R:3 energy=-4305.117114564319 name=nbu_bent smiles=CCCC config_type=start_6 pbc="F F F"
C       -1.76259844      -0.59010234      -1.21877361
C       -0.73983990      -1.46308048      -1.92345043
C        0.54080837      -1.76110092      -1.11326618
C        1.38047548      -0.49841965      -0.77544264
H       -1.36608479       0.42340974      -0.99736527
H       -2.09251267      -1.04569084      -0.25212821
H       -2.68570476      -0.45259197      -1.82403924
H       -0.45382876      -0.98980265      -2.88087984
H       -1.19477956      -2.44841192      -2.21314988
H        0.24725157      -2.27481819      -0.17233491
H        1.18209694      -2.48279043      -1.67248499
H        2.29955022      -0.77311365      -0.23288950
H        0.82140100       0.22659136      -0.13773314
H        1.69095726       0.03480811      -1.70201900
14
Properties=species:S:1:pos:R:3 energy=-4305.117114564319 name=nbu_bent smiles=CCCC config_type=start_7 pbc="F F F"
C       -1.36682156       1.36822034       1.25616561
C       -0.31413210       0.49261648       0.53882043
C        0.93355763       0.22514292       1.37839018
C        1.75965852       1.44720765       1.69846664
H       -0.97836921       2.37204026       1.47512327
H       -1.65566733       0.91813684       2.21085821
H       -2.25794124       1.48372797       0.62552724
H       -0.01857124       0.97491265      -0.41655016
H       -0.79439644      -0.45151808       0.28148988
H        0.65130643      -0.27966781       2.31981491
H        1.55374306      -0.49460557       0.82821899
H        2.68682778       1.18190965       2.24354750
H        1.20200700       2.15171064       2.32329914
H        2.04800274       1.98168189       0.78131500
14
Properties=species:S:1:pos:R:3 energy=-4305.117114564319 name=nbu_bent smiles=CCCC config_type=start_8 pbc="F F F"
C       -2.31752357       0.03186379       0.41830742
C       -1.27336791      -0.83402718      -0.31145626
C       -0.00563626      -1.14019879       0.57623555
C        0.84211364       0.12891412       0.84269833
H       -1.95721111       1.03631989       0.63355228
H       -2.63923040      -0.42083860       1.37295182
H       -3.22621988       0.17732458      -0.24970025
H       -0.95044751      -0.35213010      -1.26355525
H       -1.70471479      -1.82014012      -0.51581605
H       -0.31228901      -1.65761190       1.53245798
H        0.61957476      -1.86634272       0.03407519
H        1.79810087      -0.13607403       1.39075625
H        0.27591304       0.85353613       1.44237233
H        1.13587618       0.65683911      -0.06602893
14
Properties=species:S:1:pos:R:3 energy=-4305.117114564319 name=nbu_bent smiles=CCCC config_type=start_9 pbc="F F F"
C       -0.81189643       0.74625421      -0.38091542
C        0.21939591      -0.13643682      -1.07317374
C        1.48000226      -0.39575921      -0.31111155
C        2.29802036       0.81987388       0.08032567
H       -0.38724289       1.75913011      -0.15579428
H       -1.10894960       0.29328460       0.58577818
H       -1.71742612       0.85381142      -0.94881175
H        0.47804751       0.33724010      -2.03387475
H       -0.28446121      -1.07978988      -1.41584395
H        1.21084701      -0.89687410       0.61502202
H        2.11626524      -1.11105328      -0.87834119
H        3.18827713       0.54487003       0.61990175
H        1.74749496       1.52476587       0.74319367
H        2.60308382       1.35965089      -0.85467507
14
Properties=species:S:1:pos:R:3 energy=-4305.117114564319 name=nbu_bent smiles=CCCC config_type=start_10 pbc="F F F"
C       -1.58202599       0.44452496       0.02210435
C       -0.53853752      -0.52545267      -0.52150165
C        0.73590671      -0.77537656       0.15656318
C        1.59323116       0.48451941       0.25741955
H       -1.23841270       1.61109132       0.25793977
H       -1.92047526      -0.06983651       1.30197047
H       -2.49761523       0.52621244      -0.44407903
H       -0.19380828      -0.20648898      -1.48654134
H       -0.94470394      -1.62013170      -0.95588855
H        0.41746756      -1.24508792       1.24970927
H        1.35996051      -1.42291429      -0.51910034
H        2.56375162       0.05862824       0.77806063
H        1.02284094       1.24830464       0.87411823
H        1.88800557       1.08964217      -0.78436053
14
Properties=species:S:1:pos:R:3 energy=-4305.117114564319 name=nbu_bent smiles=CCCC config_type=start_11 pbc="F F F"
C       -1.54739401       0.33359304       0.01528765
C       -0.51543448      -0.44501133      -0.86312835
C        0.73845929      -0.76058144       0.10856082
C        1.54690284       0.46426859       0.66560445
H       -1.10604130       1.18435868       0.21981823
H       -1.82770474      -0.05771749       0.65675953
H       -2.44603077       0.50492356      -0.75443297
H       -0.27859172       0.19159898      -1.81088866
H       -1.04447206      -1.27979830      -0.97577145
H        0.48109044      -1.30939808       0.89777073
H        1.37587949      -1.55448171      -0.32516566
H        2.42262638       0.35016776       1.23259737
H        1.00056706       1.12999736       1.31144777
H        1.85095443       0.92684783      -0.13634347
14
Properties=species:S:1:pos:R:3 energy=-4305.117114564319 name=nbu_bent smiles=CCCC config_type=start_12 pbc="F F F"
C       -1.56487121       0.38900685       0.01869914
C       -0.52318972      -0.48713172      -0.69152306
C        0.73620106      -0.76370027       0.13341259
C        1.56739602       0.47199465       0.45986350
H       -1.17281644       1.39776953       0.23877219
H       -1.93554098      -0.08220968       1.05593850
H       -2.49448375       0.56495851      -0.68113937
H       -0.13619941      -0.04633014      -1.63976676
H       -1.01676879      -1.33296340      -0.95261504
H        0.44454780      -1.31878996       0.97117126
H        1.39042167      -1.54608224      -0.32994611
H        2.41506693       0.13815722       0.98458510
H        1.01921791       1.22440748       1.18207851
H        1.92924669       1.02954860      -0.53523337
14
Properties=species:S:1:pos:R:3 energy=-4305.117114564319 name=nbu_bent smiles=CCCC config_type=start_13 pbc="F F F"
C       -1.56454879       0.38911115       0.01869286
C       -0.53078228      -0.48333228      -0.69310694
C        0.73816494      -0.77225773       0.13171141
C        1.57273798       0.47679335       0.46316050
H       -1.17163756       1.39768047       0.23898581
H       -1.81263902      -0.04534432       0.90279150
H       -2.44916225       0.46617749      -0.51737263
H       -0.33620059       0.03144014      -1.65766324
H       -0.97240721      -1.56696660      -0.97904496
H        0.45401020      -1.23569604       1.17630874
H        1.34541833      -1.43131376      -0.51431989
H        2.57131107       0.27063878       1.02607290
H        1.00419009       1.15389452       1.00348749
H        1.80971331       0.98694140      -0.38547063
14
Properties=species:S:1:pos:R:3 energy=-4305.117114564319 name=nbu_bent smiles=CCCC config_type=start_14 pbc="F F F"
C       -1.56504154       0.38905808       0.01935642
C       -0.53003733      -0.48318767      -0.69346939
C        0.73859994      -0.76734753       0.14639945
C        1.57243873       0.47157395       0.44851858
H       -1.17780082       1.39926424       0.23898811
H       -1.79163248      -0.03953680       0.87993645
H       -2.44045322       0.44963167      -0.49381601
H       -0.36474857       0.04341959      -1.66050490
H       -0.99071013      -1.39093551      -0.94310163
H        0.44351804      -1.30109561       1.04187191
H        1.37603612      -1.52027161      -0.35721230
H        2.45137989       0.14559273       0.97774467
H        1.01912706       1.21707594       1.13704644
H        1.91332930       1.02652328      -0.53137432
14
Properties=species:S:1:pos:R:3 energy=-4305.117114564319 name=nbu_bent smiles=CCCC config_type=start_15 pbc="F F F"
C       -1.56437846       0.38905992       0.01803558
C       -0.52393467      -0.48727633      -0.69116061
C        0.73576606      -0.76861047       0.11872455
C        1.56769527       0.47721405       0.47450542
H       -1.16665318       1.39618576       0.23876989
H       -1.95654752      -0.08801720       1.07879355
H       -2.50319278       0.58150433      -0.70469599
H       -0.10765143      -0.05830959      -1.63692510
H       -0.99846587      -1.50899449      -0.98855837
H        0.45503996      -1.25339039       1.10560809
H        1.35980388      -1.45712439      -0.48705370
H        2.53499811       0.26320327       1.03291333
H        1.00428094       1.16122606       1.04851956
H        1.82563070       0.98996672      -0.38932968
14
Properties=species:S:1:pos:R:3 energy=-4305.117114564319 name=nbu_bent smiles=CCCC config_type=start_16 pbc="F F F"
C       -1.56477704       0.38883074       0.01938915
C       -0.52298149      -0.47909332      -0.70579855
C        0.73860339      -0.77171658       0.13848128
C        1.56478964       0.47264218       0.46872397
H       -1.17362675       1.39234599       0.23858590
H       -1.87912466      -0.06378028       0.96633687
H       -2.47187106       0.52428582      -0.63214323
H       -0.21435290       0.00999154      -1.65891858
H       -0.96716785      -1.56283157      -0.97088667
H        0.45234895      -1.23713896       1.18246431
H        1.34410250      -1.43341256      -0.50226844
H        2.39542978       0.13559736       0.99104621
H        1.01929978       1.22748068       1.20809691
H        1.93666875       1.03069541      -0.53275743
14
Properties=species:S:1:pos:R:3 energy=-4305.117114564319 name=nbu_bent smiles=CCCC config_type=start_17 pbc="F F F"
C       -1.56464296       0.38928726       0.01800285
C       -0.53099051      -0.49137068      -0.67883145
C        0.73576261      -0.76424142       0.12664272
C        1.57534436       0.47614582       0.45430003
H       -1.17082725       1.40310401       0.23917210
H       -1.86905534      -0.06377372       0.99239313
H       -2.47177494       0.50685018      -0.56636877
H       -0.25804710      -0.02488154      -1.63851142
H       -1.02200815      -1.33709843      -0.96077333
H        0.44620905      -1.31734704       0.96501569
H        1.39173750      -1.54398344      -0.34199756
H        2.59094822       0.27319864       1.01961179
H        1.00410822       1.15082132       0.97746909
H        1.80229125       0.98579459      -0.38794657
14
Properties=species:S:1:pos:R:3 energy=-4305.117114564319 name=nbu_bent smiles=CCCC config_type=start_18 pbc="F F F"
C       -1.57286600       0.40729803       0.02032231
C       -0.50071530      -0.47635805      -0.68946626
C        0.73708029      -0.79836345       0.12751039
C        1.54842113       0.48584240       0.46283441
H       -1.18187987       1.41933846       0.24076539
H       -1.81782350      -0.03193587       0.98744121
H       -2.43815110       0.48410104      -0.60716789
H       -0.20115820       0.00570229      -1.64443458
H       -0.99584234      -1.49010529      -0.97258002
H        0.40795678      -1.34360124       1.05916851
H        1.42141900      -1.53814430      -0.42670600
H        2.46394292       0.22111879       1.00694539
H        0.99404409       1.18163793       1.09752214
H        1.83344660       1.02239401      -0.45603206
14
Properties=species:S:1:pos:R:3 energy=-4305.117114564319 name=nbu_bent smiles=CCCC config_type=start_19 pbc="F F F"
C       -1.55655400       0.37081997       0.01706969
C       -0.55325670      -0.49410595      -0.69516374
C        0.73728571      -0.73759455       0.13761361
C        1.59171287       0.46294560       0.46018959
H       -1.16257413       1.37611154       0.23699261
H       -1.93035650      -0.09561813       0.97128879
H       -2.50549490       0.54703496      -0.59134411
H       -0.27124180      -0.02059229      -1.65299542
H       -0.99333366      -1.40982471      -0.95907998
H        0.49060122      -1.21088476       1.08831149
H        1.31442100      -1.43925170      -0.41756000
H        2.52243508       0.18767721       1.00371261
H        1.02936391       1.19666407       1.08804386
H        1.90551340       0.99409599      -0.46467194
14
Properties=species:S:1:pos:R:3 energy=-4305.117114564319 name=nbu_bent smiles=CCCC config_type=start_20 pbc="F F F"
C       -1.54669239       0.39671427       0.02330130
C       -0.54220511      -0.46143060      -0.69306115
C        0.76019304      -0.77183167       0.13744059
C        1.55226632       0.45020861       0.45486464
H       -1.15053214       1.40677087       0.24414614
H       -1.92099112      -0.06742914       0.96419373
H       -2.49561814       0.57833394      -0.59860157
H       -0.25488941       0.02628482      -1.64907178
H       -0.96418409      -1.45438980      -0.95955056
H        0.45902610      -1.29093865       1.08001169
H        1.40106860      -1.49869066      -0.41256802
H        2.47110415       0.17071284       0.99645259
H        1.00255022       1.11167362       1.08010906
H        1.79967299       1.00487249      -0.47621823
14
Properties=species:S:1:pos:R:3 energy=-4305.117114564319 name=nbu_bent smiles=CCCC config_type=start_21 pbc="F F F"
C       -1.58272761       0.38140373       0.01409070
C       -0.51176689      -0.50903340      -0.69156885
C        0.71417296      -0.76412633       0.12768341
C        1.58786768       0.49857939       0.46815936
H       -1.19392186       1.38867913       0.23361186
H       -1.82718888      -0.06012486       0.99453627
H       -2.44802786       0.45280206      -0.59991043
H       -0.21751059      -0.04117482      -1.64835822
H       -1.02499191      -1.44554020      -0.97210944
H        0.43953190      -1.26354735       1.06746831
H        1.33477140      -1.47870534      -0.43169798
H        2.51527385       0.23808316       1.01420541
H        1.02085778       1.26662838       1.10545694
H        1.93928701       1.01161751      -0.44448577
14
Properties=species:S:1:pos:R:3 energy=-4305.117114564319 name=nbu_bent smiles=CCCC config_type=start_22 pbc="F F F"
C       -1.56977957       0.38399325       0.05199809
C       -0.52039436      -0.46954404      -0.69503995
C        0.72100862      -0.76960451       0.12385093
C        1.58236761       0.46302356       0.45543546
H       -1.17725904       1.39286060       0.27110378
H       -1.86891662      -0.05965404       0.94865373
H       -2.46801910       0.51975247      -0.63283442
H       -0.21038018       0.05687122      -1.64459857
H       -1.06198693      -1.45928110      -0.98543122
H        0.45386648      -1.27292958       1.04022335
H        1.37074939      -1.48325521      -0.45457342
H        2.54157981       0.15437619       0.99569762
H        1.01564005       1.19471453       1.05826688
H        1.87539074       1.01279281      -0.49087655
14
Properties=species:S:1:pos:R:3 energy=-4305.117114564319 name=nbu_bent smiles=CCCC config_type=start_23 pbc="F F F"
C       -1.55964043       0.39412475      -0.01460609
C       -0.53357764      -0.50091996      -0.68959005
C        0.75335738      -0.76635349       0.14127307
C        1.55776639       0.48576444       0.46758854
H       -1.16719496       1.40258940       0.20665422
H       -1.87926338      -0.06789996       1.01007627
H       -2.47562690       0.51138353      -0.56567758
H       -0.26201982      -0.07176122      -1.65283143
H       -0.92718907      -1.44064890      -0.94622878
H        0.44469152      -1.28155642       1.10725665
H        1.36509061      -1.49414079      -0.38969258
H        2.44479819       0.25441981       1.01496038
H        1.00776795       1.18358747       1.12729912
H        1.86356926       1.00369719      -0.42982745
14
Properties=species:S:1:pos:R:3 energy=-4305.117114564319 name=nbu_bent smiles=CCCC config_type=start_24 pbc="F F F"
C       -1.56248391       0.39147782       0.00209852
C       -0.52054960      -0.46631915      -0.68582060
C        0.71644264      -0.77163926       0.13208704
C        1.58319546       0.45792120       0.46392212
H       -1.16967835       1.40004805       0.22296127
H       -1.86726239      -0.03839056       1.00137758
H       -2.46372914       0.54021521      -0.57737936
H       -0.23831534      -0.01256670      -1.64546723
H       -0.99004462      -1.44983321      -0.96094377
H        0.41737987      -1.28384847       1.08632324
H        1.33704857      -1.49640217      -0.41004916
H        2.48953353       0.20723598       1.00964229
H        1.02919277       1.16447885       1.10918726
H        1.88599800       0.98273964      -0.44450966
14
Properties=species:S:1:pos:R:3 energy=-4305.117114564319 name=nbu_bent smiles=CCCC config_type=start_25 pbc="F F F"
C       -1.56693609       0.38664018       0.03529348
C       -0.53342240      -0.50414485      -0.69880940
C        0.75792336      -0.76431874       0.13303696
C        1.55693854       0.49086680       0.45910188
H       -1.17477565       1.39540195       0.25479673
H       -1.88091761      -0.08916344       0.95735242
H       -2.47991686       0.49092079      -0.62113264
H       -0.23408466      -0.00232330      -1.65196277
H       -0.99913138      -1.45009679      -0.97071623
H        0.48117813      -1.27063753       1.06115676
H        1.39879143      -1.48099383      -0.43421684
H        2.49684447       0.20156002       1.00101571
H        0.99421523       1.21382315       1.07637874
H        1.85296200       1.03375036      -0.47619434
14
Properties=species:S:1:pos:R:3 energy=-4305.117114564319 name=nbu_bent smiles=CCCC config_type=start_26 pbc="F F F"
C       -1.55677979       0.37661107       0.01799088
C       -0.51970127      -0.48293220      -0.68366776
C        0.73436202      -0.77684775       0.13575120
C        1.56470368       0.48256728       0.44975667
H       -1.18740047       1.42074107       0.24006266
H       -1.88886753      -0.09088700       0.95070082
H       -2.47188797       0.54364025      -0.59965289
H       -0.23549603       0.03214080      -1.63777193
H       -1.02238689      -1.44075857      -0.96497002
H        0.48787242      -1.26007751       1.06179669
H        1.33468173      -1.48392874      -0.42432249
H        2.45400986       0.25647751       0.99884802
H        1.01430762       1.18614089       1.11390389
H        1.87403879       0.99367728      -0.43734540
14
Properties=species:S:1:pos:R:3 energy=-4305.117114564319 name=nbu_bent smiles=CCCC config_type=start_27 pbc="F F F"
C       -1.57264021       0.40150693       0.01940112
C       -0.53427073      -0.48753180      -0.70096224
C        0.74000398      -0.75911025       0.12937280
C        1.57543032       0.46622072       0.47326733
H       -1.15705353       1.37470893       0.23769534
H       -1.85931247      -0.03666700       1.00802918
H       -2.47175803       0.48749575      -0.59885911
H       -0.23690397      -0.04703080      -1.65965807
H       -0.96678911      -1.45917143      -0.96668998
H        0.41068558      -1.29440849       1.08568331
H        1.40115827      -1.49346726      -0.41994351
H        2.53236814       0.15231849       1.01180998
H        1.00910038       1.19216111       1.07166211
H        1.86492121       1.02281272      -0.48335860
14
Properties=species:S:1:pos:R:3 energy=-4305.117114564319 name=nbu_bent smiles=CCCC config_type=start_28 pbc="F F F"
C       -1.57710757       0.38102481       0.01584135
C       -0.53041279      -0.47726773      -0.68201465
C        0.74831636      -0.76824492       0.12284380
C        1.56399959       0.46787222       0.46134617
H       -1.15058236       1.41135662       0.24374466
H       -1.85917420      -0.04919182       0.97294117
H       -2.47440928       0.49054480      -0.62763135
H       -0.21171050       0.03511193      -1.63234146
H       -0.93702417      -1.43327859      -0.96380397
H        0.45387303      -1.27168568       1.09104832
H        1.34341104      -1.49405623      -0.40124684
H        2.51014851       0.20777819       1.00912657
H        0.99533918       1.22822217       1.08182636
H        1.90096529       0.98486840      -0.45078950
14
Properties=species:S:1:pos:R:3 energy=-4305.117114564319 name=nbu_bent smiles=CCCC config_type=start_29 pbc="F F F"
C       -1.55231243       0.39709319       0.02155065
C       -0.52355921      -0.49319627      -0.70261535
C        0.72604964      -0.76771308       0.14228020
C        1.57613441       0.48091578       0.46167783
H       -1.19387164       1.38409338       0.23401334
H       -1.88900580      -0.07836218       0.98578883
H       -2.46923672       0.54059120      -0.57088065
H       -0.26068950      -0.05000193      -1.66508854
H       -1.05215183      -1.46665141      -0.96785603
H        0.44468497      -1.28280032       1.05643168
H        1.39242896      -1.48333977      -0.44301916
H        2.47622949       0.20101781       1.00153143
H        1.02806882       1.15007983       1.10373964
H        1.83799471       1.03162160      -0.46991450
14
Properties=species:S:1:pos:R:3 energy=-4305.117114564319 name=nbu_bent smiles=CCCC config_type=start_30 pbc="F F F"
C       -1.56722039       0.38918558       0.01833271
C       -0.53712185      -0.48054490      -0.69313657
C        0.74145872      -0.77724060       0.13249159
C        1.57839583       0.47888222       0.46276264
H       -1.18217132       1.39821045       0.23753556
H       -1.84356578      -0.02154485       1.00368799
H       -2.47217096       0.46463510      -0.61789419
H       -0.21696595      -0.01662176      -1.64722556
H       -1.00467858      -1.43135285      -0.96469487
H        0.50018350      -1.25254065       1.06735021
H        1.32362458      -1.48154861      -0.42074065
H        2.47491526       0.19570301       1.00167277
H        1.03108510       1.14087820       1.10344591
H        1.83289750       1.03168016      -0.46927274
14
Properties=species:S:1:pos:R:3 energy=-4305.117114564319 name=nbu_bent smiles=CCCC config_type=start_31 pbc="F F F"
C       -1.56219961       0.38893242       0.01905929
C       -0.51685015      -0.48991910      -0.69149343
C        0.73290728      -0.75871740       0.13263241
C        1.56173817       0.46990578       0.46026136
H       -1.16228268       1.39723955       0.24022244
H       -1.90461422      -0.10600915       0.95504201
H       -2.47147504       0.56650090      -0.58061781
H       -0.25543405       0.00173176      -1.65020444
H       -0.98449742      -1.46857715      -0.96696513
H        0.39837450      -1.30194535       1.08012979
H        1.41221542      -1.49584739      -0.42352535
H        2.51146274       0.21309299       1.00898523
H        0.99232290       1.23742380       1.08212009
H        1.90606250       0.98480984      -0.45143126
14
Properties=species:S:1:pos:R:3 energy=-4305.117114564319 name=nbu_bent smiles=CCCC config_type=start_32 pbc="F F F"
C       -1.55118877       0.38725476       0.02031398
C       -0.52428757      -0.49026938      -0.69149421
C        0.72394433      -0.77340055       0.12608524
C        1.56707813       0.48640784       0.46550148
H       -1.11597320       1.39189585       0.24572555
H       -1.88140778      -0.08174059       0.96479872
H       -2.47265478       0.52304317      -0.60330114
H       -0.23396914       0.00338506      -1.64676039
H       -0.95639284      -1.43819796      -0.95923447
H        0.42944057      -1.27537872       1.09771350
H        1.31901038      -1.50004231      -0.39658309
H        2.50646222       0.17783414       1.00321274
H        1.00784656       1.18476782       1.07539301
H        1.84037279       1.04536499      -0.48657314
14
Properties=species:S:1:pos:R:3 energy=-4305.117114564319 name=nbu_bent smiles=CCCC config_type=start_33 pbc="F F F"
C       -1.57823123       0.39086324       0.01707802
C       -0.52968443      -0.48019462      -0.69313579
C        0.75042167      -0.76255745       0.13903876
C        1.57305587       0.46238016       0.45752252
H       -1.22848080       1.40355415       0.23203245
H       -1.86677222      -0.04581341       0.99393128
H       -2.47099122       0.50809283      -0.59521086
H       -0.23843086      -0.01827506      -1.65066961
H       -1.03278316      -1.46173204      -0.97242553
H        0.46911743      -1.27910728       1.04976650
H        1.41682962      -1.47735369      -0.44768291
H        2.47991578       0.23096186       1.00744526
H        1.01556144       1.19353418       1.11017299
H        1.89858721       0.97112501      -0.43413086
14
Properties=species:S:1:pos:R:3 energy=-4305.117114564319 name=nbu_bent smiles=CCCC config_type=start_34 pbc="F F F"
C       -1.56364818       0.40264463       0.02082187
C       -0.53413742      -0.49915031      -0.69126304