14
Properties=species:S:1:pos:R:3 energy=-4305.138647313924 name=nbu_straight smiles=CCCC config_type=start_0 pbc="F F F"
C       -1.87814163      -0.16089423      -0.17592767
C       -1.07790808      -0.06069206       0.71725567
C        0.74257140      -0.34779819      -0.15772768
C        2.25440444       0.35534329       0.89196344
H       -2.76357277      -0.35954438       0.41276825
H       -2.70823643       0.78696804      -0.66842315
H       -2.32058673      -0.43017481      -0.91545545
H       -1.23313383       0.63159511       1.54466770
H       -0.48079841      -1.70079456       1.06540381
H        0.61432615      -1.27694706      -1.05680593
H        0.97423222       0.54008761      -0.62649362
H        2.15609057       1.05275276       1.70840773
H        2.34592844      -0.30512572       1.43708108
H        3.50315671       0.49942015       0.28613727
14
Properties=species:S:1:pos:R:3 energy=-4305.138647313924 name=nbu_straight smiles=CCCC config_type=start_1 pbc="F F F"
C       -1.90058437      -0.19505977      -0.18128433
C       -0.19798792      -0.37209394       0.68371833
C        0.56276460       0.54516019       0.03108368
C        1.55384956      -0.23549529       0.73943656
H       -2.83789123      -0.45992762       0.39070975
H       -1.34622557       0.85425596      -0.59929085
H       -1.32098727      -1.39220119      -1.09267455
H       -0.26619617       0.37346089       1.52746230
H       -0.61126159      -0.73043144       1.27485219
H        0.91416385       0.03685106      -0.74136007
H        0.14748778       1.65597439      -0.43892038
H        1.51509343       0.53294124       1.57442627
H        1.73807956      -1.57252428       1.10410092
H        2.12777929       0.08435385       0.18464873
14
Properties=species:S:1:pos:R:3 energy=-4305.138647313924 name=nbu_straight smiles=CCCC config_type=start_2 pbc="F F F"
C       -1.71881298      -0.13361108      -0.13206704
C       -0.72458336      -0.32355861       1.16693785
C        0.67880926       0.22934757      -0.82125653
C        1.76210804      -0.03651481       1.11101218
H       -2.07409178      -0.20223200       0.54640751
H       -1.86812972       0.81849481      -0.34242147
H       -1.78867713      -1.08176741       0.04170741
H       -1.40342512       0.23901450       1.91851555
H       -1.08295160      -1.22111865       0.28835282
H        1.03275943      -0.38918549      -1.86374611
H        0.78449403       1.32974616      -1.57950113
H        1.12043145       0.51634859       1.84617210
H        2.01880207      -1.07641561       2.15274039
H        2.88243800       0.30886802       0.22652906
14
Properties=species:S:1:pos:R:3 energy=-4305.138647313924 name=nbu_straight smiles=CCCC config_type=start_3 pbc="F F F"
C       -2.05991302      -0.22234292      -0.22514496
C       -0.55131264      -0.10922739       0.23403615
C        0.62652674      -0.03198557       0.69461253
C        2.04614596       0.15636281       0.52038782
H       -3.52737222      -0.61724000       0.25707049
H       -2.18633228       0.82272919      -0.92529253
H       -1.85289687      -0.74060859      -2.04983741
H       -0.09590488       0.76604150       1.15361445
H       -0.00910840      -1.21010735       2.05190318
H        0.49573057      -0.85091051       0.06558011
H        0.33722597       0.86631584       0.51408713
H        2.55075255       1.06934541       1.43666190
H        2.06520593      -0.80123439       0.38844161
H        2.74849800       0.27490598       0.24425694
14
Properties=species:S:1:pos:R:3 energy=-4305.138647313924 name=nbu_straight smiles=CCCC config_type=start_4 pbc="F F F"
C       -3.93100420       2.25708659      -1.79671840
C       -2.67568431       2.25256725      -0.98034075
C       -1.40328791       2.57987205      -1.71274457
C       -0.17656404       2.50203893      -0.70338958
H       -4.80367406       1.95818694      -1.22062652
H       -4.03354057       3.28361405      -2.38725272
H       -3.84636500       1.52212849      -2.66164811
H       -2.82842537       3.03915441      -0.14329096
H       -2.64217216       1.33823541      -0.47624164
H       -1.26275922       1.85224186      -2.62354565
H       -1.49576541       3.55165414      -2.13466458
H       -0.28311298       3.30117998       0.13034218
H       -0.02808175       1.46871107      -0.22679050
H        0.73228272       2.70803549      -1.23777888
14
Properties=species:S:1:pos:R:3 energy=-4305.138647313924 name=nbu_straight smiles=CCCC config_type=start_5 pbc="F F F"
C        0.15227820      -2.61304059       1.43950640
C        1.39978831      -2.68535325       2.38131475
C        2.70862391      -2.38251005       1.58610057
C        3.98481804      -2.38219093       2.33478958
H       -0.79778994      -2.77765894       2.02410452
H       -0.02092143      -1.64239005       1.11953872
H        0.20479100      -3.34450449       0.65351811
H        1.32909537      -2.03409841       3.21542096
H        1.55011216      -3.76946141       2.81649764
H        2.79124922      -3.09233786       0.82537965
H        2.61748541      -1.35559214       1.06925058
H        3.95429698      -1.71548598       3.15249182
H        4.11208975      -3.34636107       2.76797250
H        4.89865328      -2.12426149       1.70856488
14
Properties=species:S:1:pos:R:3 energy=-4305.138647313924 name=nbu_straight smiles=CCCC config_type=start_6 pbc="F F F"
C       -2.51514120      -3.27435704      -4.09182850
C       -1.31105113      -3.30862140      -3.19270505
C        0.03167688      -3.04184626      -4.00297662
C        1.30458597      -3.01638288      -3.09589402
H       -3.41376417      -3.49079137      -3.50760863
H       -2.71794414      -2.28447221      -4.52818046
H       -2.49714050      -3.97277864      -4.87716966
H       -1.43786757      -2.60395964      -2.36038235
H       -1.17909130      -4.37297939      -2.77424380
H        0.12537818      -3.77465774      -4.83951784
H       -0.02676411      -2.04556527      -4.48666718
H        1.22325241      -2.29831627      -2.27417369
H        1.44021306      -3.98270585      -2.62064270
H        2.25092952      -2.78639073      -3.69110280
14
Properties=species:S:1:pos:R:3 energy=-4305.138647313924 name=nbu_straight smiles=CCCC config_type=start_7 pbc="F F F"
C       -1.26358480       2.91840304       3.73461650
C        0.03515513       2.87583540       4.59367905
C        1.27365912       3.23920826       3.87633262
C        2.50366803       3.13623088       4.72729402
H       -2.18769983       2.67131937       4.31108663
H       -1.33651786       3.92569621       3.26046646
H       -1.14443350       2.15040264       2.86903966
H       -0.06146243       3.60901564       5.43251235
H        0.08703130       1.94175339       5.11449980
H        1.40311182       2.53456174       3.04135184
H        1.14848411       4.24162727       3.42125318
H        2.44793159       3.88401027       5.55700769
H        2.64379494       2.10505585       5.16182470
H        3.38000648       3.37016473       4.16188880
14
Properties=species:S:1:pos:R:3 energy=-4305.138647313924 name=nbu_straight smiles=CCCC config_type=start_8 pbc="F F F"
C       -4.26996852      -1.30752744       1.08507625
C       -2.99821484      -1.31938022       1.90486809
C       -1.69633276      -1.07838131       1.33969694
C       -0.39786366      -1.03257931       2.02111702
H       -5.28306971      -1.55259930       1.64980551
H       -4.44681740      -0.30851591       0.61077380
H       -4.20639941      -1.98080760       0.10132733
H       -3.00831393      -0.58746199       2.75404708
H       -2.79164809      -2.38620951       2.59319706
H       -1.64404449      -1.82288007       0.55151062
H       -1.80561545      -0.09618645       0.90994998
H       -0.36246966      -0.28382010       2.86024499
H       -0.28477131      -2.00013240       2.37608953
H        0.49560902      -0.81935600       1.48235202
14
Properties=species:S:1:pos:R:3 energy=-4305.138647313924 name=nbu_straight smiles=CCCC config_type=start_9 pbc="F F F"
C        0.49124252       0.95157344      -1.44228825
C        1.72231884       0.88659422      -0.50389409
C        3.00166876       1.27574331      -1.46634094
C        4.20611766       1.15242731      -0.38971702
H       -0.31839429       0.73312730      -0.84632751
H        0.39235540       1.94973991      -1.87848780
H        0.56482541       0.15843160      -2.10945733
H        1.50898393       1.59251799       0.31808292
H        1.69958809      -0.04501649      -0.25294106
H        3.17253449       0.58278407      -2.34967662
H        2.92733545       2.29224845      -1.97536398
H        4.03365366       1.86951410       0.42258901
H        4.36877931       0.12248240       0.16509247
H        5.13532698       1.40313000      -1.01156602
14
Properties=species:S:1:pos:R:3 energy=-4305.138647313924 name=nbu_straight smiles=CCCC config_type=start_10 pbc="F F F"
C       -1.94412098      -0.00257824      -0.16782787
C       -0.67447710      -0.34358193       1.24064625
C        0.64863200       0.07528787       0.01257641
C        1.97737851       0.09194336       0.17030299
H       -3.01002957       0.26498755       0.46201443
H       -2.17391406       0.80145015       0.38631107
H       -1.90234920      -0.87752732      -0.51335235
H       -0.61561060      -0.12690435       2.04890316
H       -0.38828276      -1.75372736       1.20156562
H        0.66364839      -0.51836470      -0.34261932
H        0.53568988       1.30605737      -0.83934465
H        2.05873058       0.33188255       0.92273130
H        2.07722209      -0.75176476       0.57911228
H        2.87405099       0.54928745      -0.78921193
14
Properties=species:S:1:pos:R:3 energy=-4305.138647313924 name=nbu_straight smiles=CCCC config_type=start_11 pbc="F F F"
C       -1.83460502      -0.35337576      -0.18938413
C       -0.60141890      -0.08920407       0.16032775
C        0.65670400       0.12207413      -0.13922041
C        1.83087549       0.02790464       1.46109701
H       -2.59143443      -1.08445955       0.34146357
H       -1.88054794       0.83977385      -1.65402507
H       -1.73922480      -0.94484868      -1.49477765
H       -0.88371940       1.13196035       1.02322684
H       -0.70377724      -0.67749864       1.13869038
H        0.86484161      -0.72173130      -1.45554668
H        0.58603012       0.89000463      -0.22606935
H        1.61245342       1.25381145       2.36010270
H        2.00678591      -1.12588524       1.96206972
H        2.75688501       0.03448655       1.25999793
14
Properties=species:S:1:pos:R:3 energy=-4305.138647313924 name=nbu_straight smiles=CCCC config_type=start_12 pbc="F F F"
C       -1.88987279      -0.17814190      -0.17859608
C       -0.62594309      -0.22240044       0.70299134
C        0.64956282       0.11221152      -0.06063219
C        1.89568063       0.05233659       0.81048699
H       -2.80259598      -0.40959520       0.40140124
H       -2.22155605       0.76232275      -0.39171032
H       -1.89244658      -0.75500148      -1.26300295
H       -0.43343536       0.37956239       1.56436182
H       -0.61617181      -0.84562146       1.21191737
H        0.74928362      -0.75143102      -1.22343385
H        0.63201652       0.91656610      -0.24118645
H        1.58854834       0.58337526       1.57581902
H        2.06576508      -0.82733423       1.55296819
H        3.00446687       0.35925490      -0.00140267
14
Properties=species:S:1:pos:R:3 energy=-4305.138647313924 name=nbu_straight smiles=CCCC config_type=start_13 pbc="F F F"
C       -1.88885321      -0.17781210      -0.17861592
C       -0.64995291      -0.21038556       0.69798266
C        0.65577318       0.08515048      -0.06601181
C        1.91257337       0.06751141       0.82091301
H       -2.79886802      -0.40987680       0.40207676
H       -1.83290595       0.87890125      -0.87600368
H       -1.74912742      -1.06737452      -0.74512705
H       -1.06589464       0.62549361       1.50776818
H       -0.47588819      -1.58560454       1.12833863
H        0.77920638      -0.48866498      -0.57473215
H        0.48970348       1.27949590      -0.82422755
H        2.08263566       1.00231874       1.70701498
H        2.01824292      -1.05031577       0.98821381
H        2.62646913       0.22451910       0.47218867
14
Properties=species:S:1:pos:R:3 energy=-4305.138647313924 name=nbu_straight smiles=CCCC config_type=start_14 pbc="F F F"
C       -1.89041143      -0.17797990      -0.17651757
C       -0.64759716      -0.20992827       0.69683649
C        0.65714877       0.10067787      -0.01956415
C        1.91162708       0.05100620       0.77461120
H       -2.81835798      -0.40486850       0.40208403
H       -1.76647744       0.89726625      -0.94827769
H       -1.72158706      -1.11969698      -0.67063449
H       -1.15617127       0.66337596       1.49878205
H       -0.53376710      -1.02894536       1.24200142
H        0.74602725      -0.69547658      -0.99985874
H        0.58652544       0.99818648      -0.32740973
H        1.70337999       0.60688841       1.55418768
H        2.06547778      -0.85051859       1.41056428
H        2.95413166       0.34968798       0.01080070
14
Properties=species:S:1:pos:R:3 energy=-4305.138647313924 name=nbu_straight smiles=CCCC config_type=start_15 pbc="F F F"
C       -1.88831457      -0.17797410      -0.18069443
C       -0.62829884      -0.22285773       0.70413751
C        0.64818723       0.09668413      -0.10707985
C        1.89662692       0.06884180       0.85678880
H       -2.78310602      -0.41460350       0.40139397
H       -2.28798456       0.74395775      -0.31943631
H       -1.91998694      -0.70267902      -1.33749551
H       -0.34315873       0.34168004       1.57334795
H       -0.55829290      -1.40228064       1.09825458
H        0.78246275      -0.54461942      -0.79830726
H        0.53519456       1.19787552      -0.73800427
H        1.96780401       0.97880559       1.72864632
H        2.01853022      -1.02713141       1.13061772
H        2.67680434       0.23408602       0.45998530
14
Properties=species:S:1:pos:R:3 energy=-4305.138647313924 name=nbu_straight smiles=CCCC config_type=start_16 pbc="F F F"
C       -1.88957501      -0.17869882      -0.17641406
C       -0.62528462      -0.19698079       0.65784829
C        0.65715968       0.08686172      -0.04460358
C        1.88743852       0.05438426       0.83850625
H       -2.80515839      -0.42674592       0.40081212
H       -2.04315200       0.82060161      -0.67505556
H       -1.82093899      -0.88361982      -1.10806355
H       -0.68057839       0.55766719       1.50379845
H       -0.45931987      -1.57252843       1.15413742
H        0.77395304      -0.49322788      -0.55526654
H        0.48554245       1.27285890      -0.78611750
H        1.52645019       0.57528029       1.59625085
H        2.06602396      -0.81761590       1.63524559
H        3.02793747       0.36288143       0.00642692
14
Properties=species:S:1:pos:R:3 energy=-4305.138647313924 name=nbu_straight smiles=CCCC config_type=start_17 pbc="F F F"
C       -1.88915099      -0.17725518      -0.18079794
C       -0.65061138      -0.23580521       0.74312571
C        0.64817632       0.11050028      -0.08204042
C        1.92081548       0.06546374       0.79289375
H       -2.79630561      -0.39272608       0.40266588
H       -2.01131000       0.82062239      -0.59265844
H       -1.82063501      -0.93875618      -0.90006645
H       -0.81875161       0.44738881       1.56833155
H       -0.63274013      -0.85869757       1.18611858
H        0.75453696      -0.74686812      -1.24289946
H        0.63617755       0.92320310      -0.27929650
H        2.14473381       1.01041371       1.68658315
H        2.01798404      -1.06003410       0.90593641
H        2.60299853       0.22089257       0.46435908
14
Properties=species:S:1:pos:R:3 energy=-4305.138647313924 name=nbu_straight smiles=CCCC config_type=start_18 pbc="F F F"
C       -1.91515455      -0.12030014      -0.17346315
C       -0.55487274      -0.18833111       0.70949550
C        0.65234321       0.00259694      -0.07929660
C        1.83567674       0.09612702       0.81988183
H       -2.83125707      -0.34138823       0.40770429
H       -1.84930069       0.92130250      -0.60831777
H       -1.71430710      -1.01069528      -1.02908458
H       -0.63885311       0.54410339       1.54960087
H       -0.54999658      -1.34254775       1.14878256
H        0.63357267      -0.82989118      -0.94516211
H        0.73003870       0.94166807      -0.54716808
H        1.74310778       0.84572279       1.64652849
H        1.98615845      -0.96258342       1.28557747
H        2.70152038       0.33663008       0.24905384
14
Properties=species:S:1:pos:R:3 energy=-4305.138647313924 name=nbu_straight smiles=CCCC config_type=start_19 pbc="F F F"
C       -1.86357145      -0.23565386      -0.18374885
C       -0.72102326      -0.24445489       0.69147850
C        0.65299279       0.19476506      -0.04734740
C        1.97257726       0.02372098       0.81151817
H       -2.77020693      -0.47808377       0.39577371
H       -2.20516131       0.71992150      -0.65939623
H       -1.92726690      -0.81168072      -0.97904542
H       -0.86047689       0.46095261       1.52252913
H       -0.54206342      -1.08867825       1.19147344
H        0.89491733      -0.41020482      -0.85300389
H        0.39168130       1.25439393      -0.51824592
H        1.92807622       0.73997121       1.63630551
H        2.09784955      -0.91506658       1.25560453
H        2.92941562       0.24714392       0.22173216
14
Properties=species:S:1:pos:R:3 energy=-4305.138647313924 name=nbu_straight smiles=CCCC config_type=start_20 pbc="F F F"
C       -1.83238630      -0.15376891      -0.16404277
C       -0.68607504      -0.14112635       0.69812745
C        0.72543212       0.08649778      -0.04789454
C        1.84783632      -0.01655691       0.79467920
H       -2.73212684      -0.38113045       0.41839516
H       -2.17554535       0.80906293      -0.68183278
H       -1.89603385      -0.71270468      -1.00199550
H       -0.80876610       0.60919106       1.53493675
H       -0.44988441      -1.22960546       1.18998534
H        0.79506805      -0.66335744      -0.87925017
H        0.66568508       1.06643143      -0.50245988
H        1.76575356       0.68632516       1.61334732
H        2.01305721      -1.18382998       1.23051247
H        2.59471884       0.28122219       0.18521957
14
Properties=species:S:1:pos:R:3 energy=-4305.138647313924 name=nbu_straight smiles=CCCC config_type=start_21 pbc="F F F"
C       -1.94633970      -0.20218509      -0.19316923
C       -0.58982096      -0.29165965       0.70284655
C        0.57990388       0.11086422      -0.07874946
C        1.96041768       0.13640491       0.83672080
H       -2.86933716      -0.43834155       0.38508284
H       -1.87891665       0.83216107      -0.58588122
H       -1.74554015      -1.10967132      -1.00613450
H       -0.69056390       0.39586494       1.53719325
H       -0.64217559      -1.20162054       1.15027066
H        0.73342195      -0.57673856      -0.91891583
H        0.45603492       1.12963057      -0.56295412
H        1.90543044       0.89936884       1.66948668
H        2.07095079      -0.69382002       1.31066953
H        3.03621716       0.30255181       0.28556643
14
Properties=species:S:1:pos:R:3 energy=-4305.138647313924 name=nbu_straight smiles=CCCC config_type=start_22 pbc="F F F"
C       -1.90539439      -0.19399632      -0.07329553
C       -0.61710342      -0.16678330       0.69186996
C        0.60152011       0.09354069      -0.09086881
C        1.94302493       0.02396752       0.79648429
H       -2.81664471      -0.42511859       0.50364269
H       -2.01087135       0.83364995      -0.73097457
H       -1.80875803      -0.89795555      -1.11024927
H       -0.66801555       0.70591374       1.54908231
H       -0.75916413      -1.24507308       1.10814352
H        0.77875187      -0.60640778      -1.00507195
H        0.56980733       1.11524261      -0.63529262
H        1.98861718       0.63466416       1.61095991
H        2.05445087      -0.92123157       1.16144146
H        2.83415939       0.30626842       0.13886590
14
Properties=species:S:1:pos:R:3 energy=-4305.138647313924 name=nbu_straight smiles=CCCC config_type=start_23 pbc="F F F"
C       -1.87333161      -0.16195768      -0.28391647
C       -0.65879258      -0.26600270       0.70910404
C        0.70381589       0.10382131      -0.03577519
C        1.86522907       0.09588048       0.83491571
H       -2.78481929      -0.39435341       0.29983531
H       -2.04359065       0.80757405      -0.53673943
H       -1.83281597      -0.92442045      -0.89788073
H       -0.83131445       0.29914226       1.52304769
H       -0.33289587      -1.18615292       1.23211248
H        0.74973813      -0.63368822      -0.79309405
H        0.55191267       1.08081939      -0.43012138
H        1.68256682       0.95102984       1.67187409
H        2.02955713      -0.95641843       1.37974054
H        2.79677661       0.27750558       0.33192010
14
Properties=species:S:1:pos:R:3 energy=-4305.138647313924 name=nbu_straight smiles=CCCC config_type=start_24 pbc="F F F"
C       -1.88232349      -0.17032802      -0.23109185
C       -0.61759432      -0.15658532       0.72102409
C        0.58708121       0.08710623      -0.06482396
C        1.94564283       0.00783243       0.82332146
H       -2.79267245      -0.40238987       0.35140272
H       -2.00564019       0.90089098      -0.56424712
H       -1.79519198      -0.83324669      -0.93488499
H       -0.75635429       0.48633177       1.54633535
H       -0.53166257      -1.21519625       1.18557963
H        0.66337108      -0.64093634      -0.85929129
H        0.46323597       1.07366826      -0.49449454
H        1.82403240       0.80182148       1.65505681
H        2.09730834      -1.01684519       1.32246584
H        2.86770249       0.21123199       0.28549089
14
Properties=species:S:1:pos:R:3 energy=-4305.138647313924 name=nbu_straight smiles=CCCC config_type=start_25 pbc="F F F"
C       -1.89640251      -0.18562598      -0.12612015
C       -0.65830168      -0.27620068       0.67994991
C        0.71825479       0.11025577      -0.06182004
C        1.86261117       0.11201557       0.80807854
H       -2.80879155      -0.41708213       0.45207528
H       -2.04882181       0.74033302      -0.70346688
H       -1.84638202      -0.98912931      -1.07324501
H       -0.74297571       0.51872423       1.52579465
H       -0.56039743      -1.21602975       1.15467637
H        0.86511892      -0.59915966      -0.93887471
H        0.65848403       1.12239374      -0.57091946
H        1.84715160       0.78387252       1.62777719
H        1.98669966      -0.86080481       1.21871616
H        2.76323351       0.37254201       0.18529511
14
Properties=species:S:1:pos:R:3 energy=-4305.138647313924 name=nbu_straight smiles=CCCC config_type=start_26 pbc="F F F"
C       -1.86428546      -0.21734081      -0.18083579
C       -0.61491167      -0.20912039       0.72783199
C        0.64374728       0.07063555      -0.05323688
C        1.88716671       0.08577019       0.77852637
H       -2.84871471      -0.33695278       0.40548205
H       -2.07396165       0.73488266      -0.72450110
H       -1.82099245      -0.82241576      -1.00532007
H       -0.74743886       0.62770930       1.57067004
H       -0.63393780      -1.18649972       1.17284750
H        0.88628810      -0.56576595      -0.93685107
H        0.45575136       1.11311272      -0.53963077
H        1.71169668       0.95753688       1.62092235
H        2.05023736      -0.94834379       1.33738112
H        2.82988417       0.24581982       0.30814627
14
Properties=species:S:1:pos:R:3 energy=-4305.138647313924 name=nbu_straight smiles=CCCC config_type=start_27 pbc="F F F"
C       -1.91444054      -0.13861319      -0.17637621
C       -0.66098433      -0.22366561       0.67314201
C        0.66158872       0.12672645      -0.07340712
C        1.92108729       0.03407781       0.85287363
H       -2.75274929      -0.48251922       0.39799595
H       -1.98050035       0.90634134      -0.54321290
H       -1.82058155      -0.99996024      -1.00280993
H       -0.75189114       0.37734670       1.50145996
H       -0.45812220      -1.24472628       1.16740850
H        0.64220190      -0.67433005      -0.86131493
H        0.66596864       1.08294928      -0.52578323
H        1.95948732       0.62815712       1.66191165
H        2.03377064      -0.92930621       1.20380088
H        2.80105183       0.33795418       0.16263973
14
Properties=species:S:1:pos:R:3 energy=-4305.138647313924 name=nbu_straight smiles=CCCC config_type=start_28 pbc="F F F"
C       -1.92856757      -0.20338333      -0.18763319
C       -0.64878447      -0.19120776       0.73305956
C        0.68787477       0.09784008      -0.09405366
C        1.88494015       0.03930033       0.81517561
H       -2.73228564      -0.36662902       0.41712556
H       -1.98006309       0.86673439      -0.65417094
H       -1.82896554      -0.99031830      -1.09379575
H       -0.67222240       0.63710484       1.58784269
H       -0.36399718      -1.16284593       1.17653487
H        0.77877260      -0.60247421      -0.84434928
H        0.48335585       1.08108680      -0.46665916
H        1.88922268       0.80353610       1.65342598
H        1.99025390      -0.81527113       1.23594306
H        2.91503324       0.21796370       0.26563228
14
Properties=species:S:1:pos:R:3 energy=-4305.138647313924 name=nbu_straight smiles=CCCC config_type=start_29 pbc="F F F"
C       -1.85015843      -0.15257067      -0.16957881
C       -0.62711153      -0.24157824       0.66791444
C        0.61746123       0.09952192      -0.03259034
C        1.92331385       0.08054767       0.81622439
H       -2.86917836      -0.45284298       0.38635244
H       -2.07439891       0.77448961      -0.61354306
H       -1.81260846      -0.83205770      -0.91433425
H       -0.82710760       0.36795116       1.48428731
H       -0.72806282      -1.26838007       1.16372113
H        0.74971740      -0.63762179      -0.95381672
H        0.63836415       1.11497520      -0.59875484
H        1.78196132       0.78215790       1.62940802
H        2.09375410      -1.06237887       1.30523894
H        2.71590276       0.36581030       0.20515372
14
Properties=species:S:1:pos:R:3 energy=-4305.138647313924 name=nbu_straight smiles=CCCC config_type=start_30 pbc="F F F"
C       -1.89730154      -0.17757672      -0.17975484
C       -0.67000038      -0.20157109       0.69788897
C        0.66618902       0.06939325      -0.06354467
C        1.93046508       0.07411699       0.81965488
H       -2.83217869      -0.40820087       0.39749068
H       -1.93070495       0.95416179      -0.55694095
H       -1.82188734      -1.07225197      -1.06300412
H       -0.68884161       0.47350855       1.54077501
H       -0.57793923      -1.15675620       1.17371760
H        0.92521917      -0.54193232      -0.91928929
H        0.42078557       1.12063936      -0.52830401
H        1.77780535       0.76535102       1.62985498
H        2.10329241      -1.09147698       1.30431010
H        2.69978397       0.36599549       0.20718313
14
Properties=species:S:1:pos:R:3 energy=-4305.138647313924 name=nbu_straight smiles=CCCC config_type=start_31 pbc="F F F"
C       -1.88142446      -0.17837728      -0.17745716
C       -0.60589562      -0.23121491       0.70308503
C        0.63914698       0.12796875      -0.06309933
C        1.87778892       0.04573101       0.81174512
H       -2.76928531      -0.41127113       0.40598732
H       -2.12375705       0.68706221      -0.71077305
H       -1.81968666      -0.75012403      -0.94512588
H       -0.81048839       0.53154745       1.53135499
H       -0.51412077      -1.27446980       1.16653840
H        0.60327083      -0.69816368      -0.87887671
H        0.70093443       1.07542264      -0.53710999
H        1.89337865       0.82034298       1.65297902
H        1.98071559      -0.78617302       1.23687190
H        2.93115203       0.21777851       0.26360287
14
Properties=species:S:1:pos:R:3 energy=-4305.138647313924 name=nbu_straight smiles=CCCC config_type=start_32 pbc="F F F"
C       -1.84660510      -0.18368252      -0.17348950
C       -0.62941482      -0.23232259       0.70308258
C        0.61080367       0.08153657      -0.08380330
C        1.89467537       0.09791510       0.82831585
H       -2.62284187      -0.42816938       0.42338970
H       -2.05037185       0.76380614      -0.67991963
H       -1.82341731      -0.88754942      -1.01685684
H       -0.74261040       0.53677565       1.54224603
H       -0.42524630      -1.17840236       1.19098489
H        0.70151039      -0.61415264      -0.82327215
H        0.40619420       1.06215715      -0.45191109
H        1.87756561       0.70884469       1.63472481
H        2.02980570      -0.95268584       1.21559903
H        2.72342292       0.40927072       0.15247446
14
Properties=species:S:1:pos:R:3 energy=-4305.138647313924 name=nbu_straight smiles=CCCC config_type=start_33 pbc="F F F"
C       -1.93212090      -0.17227148      -0.18372250
C       -0.64648118      -0.20046341       0.69789142
C        0.69453233       0.11582543      -0.04284070
C        1.91357863       0.02193290       0.80308415
H       -2.97862213      -0.39130262       0.38008830
H       -2.00409015       0.87741786      -0.58779437
H       -1.81815669      -0.93482658      -0.99127316
H       -0.75671960       0.46828035       1.52988397
H       -0.66681370      -1.25282364       1.14927111
H        0.82697961      -0.62594336      -0.97489385
H        0.71552580       1.13390485      -0.61350291
H        1.79361839       0.87684931       1.64810919
H        2.05420230      -0.92496416       1.32558297
H        2.90751308       0.17450328       0.31831154
14
Properties=species:S:1:pos:R:3 energy=-4305.138647313924 name=nbu_straight smiles=CCCC config_type=start_34 pbc="F F F"