14
Properties=species:S:1:pos:R:3 energy=-4305.170793189098 smiles=CCCC name=tbu config_type=start_0 pbc="F F F"
C        0.05118333       0.10084174      -0.43686406
C       -0.35140354       1.64376371       0.30410527
C       -1.29100059      -1.04673975      -0.38144241
C        1.54816018      -0.57373464       0.12506635
H        0.24523917       0.31482695      -1.50931944
H       -1.40039011       2.15934482      -0.12083986
H        0.60042771       2.47925191       0.24000716
H       -0.55714928       1.49582623       1.38493631
H       -1.53986095      -1.27831729       0.67594566
H       -2.36848812      -0.59599811      -0.83821136
H       -1.01706204      -2.16114160      -0.92084517
H        1.38493165      -0.83711117       1.19209578
H        2.53313357       0.24225830       0.09082092
H        1.88585506      -1.65793303      -0.46099207
14
Properties=species:S:1:pos:R:3 energy=-4305.170793189098 smiles=CCCC name=tbu config_type=start_1 pbc="F F F"
C        0.01020867       0.03846426      -0.44664394
C        1.25510354       1.07522429       0.24287473
C       -1.61928141       0.58357175      -0.03672159
C        0.26912782      -1.65245336      -0.15340835
H        0.10955283       0.13155305      -1.54959256
H        1.08629011       2.28219518       0.00537786
H        2.42543829       0.72284009      -0.08354916
H        1.20822928       1.02453977       1.35352369
H       -1.77805305       0.49331529       1.05834434
H       -1.82106188       1.80265811      -0.26228864
H       -2.52648396      -0.12382040      -0.57838483
H        0.21463635      -1.78615283       0.94748022
H        1.42335843      -2.07168430      -0.51711492
H       -0.62522906      -2.41573697      -0.64628393
14
Properties=species:S:1:pos:R:3 energy=-4305.170793189098 smiles=CCCC name=tbu config_type=start_2 pbc="F F F"
C        0.34207632       0.15065372      -0.35678587
C        0.29367620       1.16383726       1.12510884
C       -1.40741380       0.00697943      -1.59287479
C        0.64935404      -1.28916637       0.52499282
H        1.50405346       0.60203873      -1.26532865
H        0.13342787       2.21690457       0.47435504
H        1.57155734       1.28961204       1.98753947
H       -0.86805721       0.77907538       2.06748598
H       -2.63923724      -0.40255290      -0.74274886
H       -1.60453697       1.02482534      -2.31147583
H       -1.36347499      -0.71942893      -2.66079087
H       -0.50591456      -1.81644673       1.44361795
H        1.93588527      -1.16591793       1.39743006
H        0.75258293      -2.00583204      -0.56982126
14
Properties=species:S:1:pos:R:3 energy=-4305.170793189098 smiles=CCCC name=tbu config_type=start_3 pbc="F F F"
C       -0.28068432      -0.01134772      -0.52672213
C        0.61002380       1.55515074      -0.57812884
C       -1.50286820      -0.47014743       1.17471079
C        1.16793396      -0.93702163      -0.55333482
H       -1.14926146      -0.15565873      -1.79358335
H       -0.44752787       2.22463543      -0.58981704
H        1.45430866       1.91247996      -1.83108147
H        1.51913721       1.74129062       0.67097402
H       -0.67867676      -0.38244910       2.47703886
H       -2.58501303       0.18183466       1.21097583
H       -2.18007101      -1.56553307       1.16156087
H        2.10548256      -0.80681727       0.69595805
H        2.02060673      -0.66350807      -1.82372406
H        0.50804307      -2.06783796      -0.53745474
14
Properties=species:S:1:pos:R:3 energy=-4305.170793189098 smiles=CCCC name=tbu config_type=start_4 pbc="F F F"
C       -3.69681380       4.51545053      -3.39600955
C       -3.26853049       5.86717807      -2.79526758
C       -5.20878576       4.29843036      -3.22050184
C       -2.89016072       3.34557746      -2.78763642
H       -3.47945916       4.54640603      -4.49147663
H       -3.82005337       6.71757594      -3.25897897
H       -2.18524955       6.04365377      -2.94808987
H       -3.46973983       5.89140802      -1.69684047
H       -5.48597148       4.27016695      -2.13870097
H       -5.79556145       5.11709309      -3.69867364
H       -5.52664009       3.33720147      -3.67437601
H       -3.06842437       3.26793652      -1.68904455
H       -1.80119621       3.48082637      -2.94697908
H       -3.17304557       2.37442843      -3.24326956
14
Properties=species:S:1:pos:R:3 energy=-4305.170793189098 smiles=CCCC name=tbu config_type=start_5 pbc="F F F"
C        3.75820580      -4.37614453       2.51250155
C        4.17223049      -3.14819007       3.34224758
C        2.29850376      -4.76159836       2.80233784
C        4.70744872      -5.57176546       2.75929442
H        3.83425116      -4.10002603       1.43256463
H        3.50595337      -2.27603594       3.14351697
H        5.21111555      -2.84156177       3.10454787
H        4.12081983      -3.37104202       4.43530047
H        2.16805748      -5.05516895       3.87299097
H        1.60601145      -3.91043309       2.59817364
H        1.98309409      -5.62216347       2.17514601
H        4.66799237      -5.89120052       3.82862055
H        5.75768821      -5.31025237       2.52068508
H        4.43367157      -6.44809843       2.13599356
14
Properties=species:S:1:pos:R:3 energy=-4305.170793189098 smiles=CCCC name=tbu config_type=start_6 pbc="F F F"
C       -1.11181345      -5.58353766      -7.58628813
C       -0.77706256      -4.28611682      -6.83447369
C       -2.58891048      -5.96537607      -7.40187435
C       -0.18596315      -6.72963625      -7.15573194
H       -0.94184250      -5.40202176      -8.66691562
H       -1.41811390      -3.44831221      -7.16776035
H        0.27808610      -3.98862818      -6.99306031
H       -0.93094025      -4.41146151      -5.74467702
H       -2.81476351      -6.15703697      -6.33425969
H       -3.26118089      -5.15617306      -7.74446682
H       -2.84462294      -6.88187630      -7.96852560
H       -0.31819002      -6.95529817      -6.07906982
H        0.87953110      -6.47205368      -7.31753524
H       -0.40038853      -7.65697550      -7.72240574
14
Properties=species:S:1:pos:R:3 energy=-4305.170793189098 smiles=CCCC name=tbu config_type=start_7 pbc="F F F"
C        1.17320545       5.72284366       6.70278013
C        1.68076256       7.00510482       7.38145369
C       -0.32137152       5.50220807       6.98371035
C        2.00325115       4.50344825       7.12738994
H        1.29663450       5.84840176       5.60800362
H        1.10401390       7.88985221       7.05229835
H        2.74777990       7.19072018       7.14951831
H        1.58202025       6.93182751       8.48313702
H       -0.50315049       5.37203497       8.06854969
H       -0.92836911       6.36283306       6.64396682
H       -0.69892306       4.59691430       6.46929560
H        1.91775802       4.33203417       8.21864582
H        3.07696090       4.64262768       6.89124124
H        1.66101453       3.58330550       6.61512974
14
Properties=species:S:1:pos:R:3 energy=-4305.170793189098 smiles=CCCC name=tbu config_type=start_8 pbc="F F F"
C       -4.31567515      -1.99261452       1.86540358
C       -3.85738797      -0.65427593       2.47237898
C       -5.74381001      -2.38059593       2.35246841
C       -3.29419671      -3.10772302       2.18660932
H       -4.35471186      -1.86338336       0.74919127
H       -4.57459018       0.15927390       2.21464355
H       -2.84257943      -0.35180328       2.09639005
H       -3.79816990      -0.72985736       3.59295087
H       -5.75887594      -2.52970805       3.46530175
H       -6.49168993      -1.59273087       2.09815949
H       -6.09234628      -3.32281379       1.88430423
H       -3.21330918      -3.27734818       3.29505327
H       -2.26984508      -2.85238634       1.80520793
H       -3.60515064      -4.06567785       1.72298728
14
Properties=species:S:1:pos:R:3 energy=-4305.170793189098 smiles=CCCC name=tbu config_type=start_9 pbc="F F F"
C        4.37706715       2.13192052      -2.74891158
C        4.76108797       3.37326393      -1.92539898
C        2.83352801       1.91742793      -2.77063241
C        5.11148471       0.88153502      -2.21495132
H        4.70950386       2.30976336      -3.80810327
H        4.26049018       4.28226610      -2.33010555
H        5.86844543       3.55389528      -1.93993205
H        4.44924990       3.25022336      -0.85449087
H        2.44096194       1.74470605      -1.73101175
H        2.30213993       2.79939087      -3.19865949
H        2.54880028       1.03785179      -3.38353423
H        4.81287718       0.65408418      -1.15547727
H        6.22633708       1.02296034      -2.23150193
H        4.86577664      -0.00799215      -2.83026328
14
Properties=species:S:1:pos:R:3 energy=-4305.170793189098 smiles=CCCC name=tbu config_type=start_10 pbc="F F F"
C       -0.06927794       0.38988587      -0.42207591
C        0.38515729       1.12727985       1.25968135
C       -1.46250969      -0.27429382      -0.07051110
C        1.04238235      -1.05463491      -1.19249933
H       -0.20472733       1.45506103      -1.41940862
H       -0.42485540       2.18578541       1.80483255
H        1.36402148       1.66250171       0.97414363
H        0.57028873       0.11100202       2.30554009
H       -1.37095126      -1.37495891       0.92454198
H       -2.27843845       0.78897746       0.46570903
H       -1.81772713      -0.76267855      -1.30945619
H        1.20717745      -2.15323409      -0.24234657
H        2.04254514      -0.57318929      -1.47560864
H        0.73727041      -1.56688822      -2.42430211
14
Properties=species:S:1:pos:R:3 energy=-4305.170793189098 smiles=CCCC name=tbu config_type=start_11 pbc="F F F"
C        0.13066994      -0.25057987      -0.46143209
C        0.51854271       1.59170815      -0.71270135
C       -1.44777231      -0.18887418      -0.34765290
C        0.77490565      -1.17155309       1.16415733
H        0.55951933      -1.00868103      -1.63950338
H        0.11075540       2.25575459      -1.92029455
H        1.66184452       1.53959029      -0.81768563
H        0.08079127       2.40936398       0.43291991
H       -1.94696274       0.58995691       0.80974802
H       -1.91111155       0.41768254      -1.56620903
H       -1.72581887      -1.52228345      -0.18977381
H        0.39239055      -0.47002991       2.38192257
H        1.91394686      -1.25623671       1.04931464
H        0.52335559      -2.50678178       1.31702611
14
Properties=species:S:1:pos:R:3 energy=-4305.170793189098 smiles=CCCC name=tbu config_type=start_12 pbc="F F F"
C        0.02976526       0.06935194      -0.44173589
C        0.47376786       1.34852596       0.27806229
C       -1.46081026      -0.20688075      -0.20417110
C        0.89322312      -1.12694666      -0.02368862
H        0.17399285       0.22344707      -1.53007265
H       -0.51183739       2.11434888       0.38436633
H        1.38210111       1.88620226      -0.39452485
H        0.90289368       1.03567954       1.42089269
H       -1.78701784       0.28300803       0.94344161
H       -2.12209061       0.36345853      -1.14243092
H       -1.64185956      -1.47378906      -0.21737372
H        0.34874604      -1.69407333       0.95002302
H        2.02162761      -0.71115964       0.30240086
H        0.97537616      -1.91383861      -0.98596577
14
Properties=species:S:1:pos:R:3 energy=-4305.170793189098 smiles=CCCC name=tbu config_type=start_13 pbc="F F F"
C        0.03162674       0.06995406      -0.44177211
C        0.42993214       1.37046204       0.26891771
C       -1.44947174      -0.25628725      -0.21399290
C        0.92406488      -1.09924134      -0.00465338
H        0.18079915       0.22293293      -1.52883935
H        0.19773739       2.32719112      -0.49982833
H        1.64376489       1.31588974       0.55098285
H       -0.25181368       1.48468646       1.31756731
H       -1.53089616      -1.06801003       0.79084839
H       -2.06745939       0.84320147       0.04193092
H       -1.90168644      -0.81117294      -1.28185628
H        1.25082196      -0.92919067       1.18955298
H        1.93486439      -1.11826636      -0.72869486
H        0.28524984      -2.15983139      -0.12131023
14
Properties=species:S:1:pos:R:3 energy=-4305.170793189098 smiles=CCCC name=tbu config_type=start_14 pbc="F F F"
C        0.02878184       0.06964771      -0.43794107
C        0.43423313       1.37129692       0.26682510
C       -1.44696027      -0.22793823      -0.12919147
C        0.92233722      -1.12937559      -0.08918854
H        0.14521551       0.23207679      -1.52882606
H        0.31901869       2.36072087      -0.63178202
H        1.69404649       1.22036244       0.68698704
H       -0.41663551       1.55384985       1.30116096
H       -1.63656812      -0.05169407       0.99836732
H       -2.12803591       0.46561689      -0.73424049
H       -1.72491453      -1.32477131      -0.37479518
H        0.55839901      -1.65114439       0.91052979
H        2.02110307      -0.75348829       0.04240807
H        0.88347705      -1.93130532      -0.96368557
14
Properties=species:S:1:pos:R:3 energy=-4305.170793189098 smiles=CCCC name=tbu config_type=start_15 pbc="F F F"
C        0.03261016       0.06965829      -0.44556693
C        0.46946687       1.34769108       0.28015490
C       -1.46332173      -0.23522977      -0.28897253
C        0.89495078      -1.09681241       0.06084654
H        0.20957649       0.21430321      -1.53008594
H       -0.63311869       2.08081913       0.51632002
H        1.33181951       1.98172956      -0.53052904
H        1.06771551       0.96651615       1.43729904
H       -1.68134588      -0.73330793       0.73592268
H       -2.06151409       0.74104311      -0.36625951
H       -1.81863147      -0.96019069      -1.12443482
H        1.04116899      -0.97211961       1.22904621
H        1.93538893      -1.07593771      -0.46870207
H        0.37714895      -2.14236468      -0.14359043
14
Properties=species:S:1:pos:R:3 energy=-4305.170793189098 smiles=CCCC name=tbu config_type=start_16 pbc="F F F"
C        0.03030892       0.06833514      -0.43775209
C        0.47497007       1.39493569       0.19564272
C       -1.44694036      -0.25316295      -0.17490700
C        0.87817514      -1.12320814       0.02746732
H        0.16931455       0.19213428      -1.53114824
H       -0.18611764       2.22075104      -0.13294894
H        1.51265551       1.65137838      -0.11164550
H        0.45167431       1.36085292       1.31031961
H       -1.50064669      -1.04413643       0.83795033
H       -2.07705062       0.83487080       0.07747010
H       -1.90928340      -0.82329039      -1.21227716
H        0.23537085      -1.70885265       0.98732627
H        2.02210025      -0.69341648       0.45261815
H        1.01822741      -1.90721749      -0.97167096
14
Properties=species:S:1:pos:R:3 energy=-4305.170793189098 smiles=CCCC name=tbu config_type=start_17 pbc="F F F"
C        0.03108308       0.07097086      -0.44575591
C        0.42872993       1.32405231       0.35133728
C       -1.46334164      -0.21000505      -0.24325700
C        0.93911286      -1.10297986      -0.05580932
H        0.18547745       0.25424572      -1.52776376
H       -0.12798236       2.22078896       0.01748694
H        1.51321049       1.55071362       0.26810350
H        0.19940569       1.15951308       1.42814039
H       -1.81726731       0.25913443       0.89633967
H       -2.11249938       0.37178920      -1.17797010
H       -1.63426260      -1.46167161      -0.28695284
H        1.36419715      -0.91441135       1.15224973
H        1.93439175      -1.13600952      -0.87891215
H        0.24239859      -2.16645251      -0.13560504
14
Properties=species:S:1:pos:R:3 energy=-4305.170793189098 smiles=CCCC name=tbu config_type=start_18 pbc="F F F"
C       -0.01639272       0.17495606      -0.43236449
C        0.60352398       1.41072777       0.28993720
C       -1.45573398      -0.40700869      -0.23824749
C        0.78367150      -1.04699662      -0.00653606
H        0.12166511       0.34797539      -1.51856493
H        0.16780481       2.40460486      -0.01110297
H        1.70733782       1.41937140       0.03254970
H        0.52785391       1.33608893       1.39394301
H       -1.66619895      -0.62425109       0.82817374
H       -2.33334893       0.22021052      -0.63437856
H       -1.46289637      -1.42795934      -0.77601721
H        0.63093169      -1.21509446       1.07912025
H        1.87628644      -0.95808975      -0.18578558
H        0.42227405      -1.95514568      -0.52869683
14
Properties=species:S:1:pos:R:3 energy=-4305.170793189098 smiles=CCCC name=tbu config_type=start_19 pbc="F F F"
C        0.07778472      -0.03565006      -0.45114351
C        0.30017602       1.30826023       0.25704280
C       -1.45454802      -0.05615931      -0.17991651
C        1.03361650      -1.17919138      -0.02180594
H        0.23312689       0.09840461      -1.54034707
H       -0.48190481       2.03693514      -0.10435903
H        1.31852818       1.78272060       0.12390830
H        0.12322609       1.18427707       1.34451699
H       -1.65171505      -0.16075091       0.90611626
H       -1.85620107       0.98644948      -0.46612144
H       -2.08064963      -0.85700266      -0.72321279
H        0.96863631      -1.40816954       1.06045575
H        2.08020556      -0.87133625      -0.24050842
H        0.83835195      -2.11852432      -0.57857917
14
Properties=species:S:1:pos:R:3 energy=-4305.170793189098 smiles=CCCC name=tbu config_type=start_20 pbc="F F F"
C        0.13472075       0.11385072      -0.41516529
C        0.36398244       1.49691147       0.26918207
C       -1.32229250      -0.25382742      -0.18091544
C        0.80587175      -1.25272839      -0.05254955
H        0.30265132       0.27541635      -1.49904615
H       -0.42783372       2.19968438      -0.14532239
H        1.37555167       1.96342530       0.08200737
H        0.21763665       1.45492222       1.36717011
H       -1.48341996      -0.41804761       0.90339938
H       -2.03850007       0.52425814      -0.51404038
H       -1.58038947      -1.20017367      -0.69439156
H        0.67227704      -1.50611338       1.01854001
H        1.92539664      -1.36202885      -0.28632005
H        0.22728202      -2.05630619      -0.64524173
14
Properties=species:S:1:pos:R:3 energy=-4305.170793189098 smiles=CCCC name=tbu config_type=start_21 pbc="F F F"
C       -0.07332875       0.02545528      -0.46834271
C        0.53971756       1.22207653       0.27779793
C       -1.58798950      -0.20934058      -0.23724856
C        1.01141625      -0.97345961       0.02420755
H        0.05214068       0.17096365      -1.55986585
H        0.11373372       2.24185562       0.02986039
H        1.65031433       1.23866670       0.07445063
H        0.43344335       1.06544378       1.37128989
H       -1.83449404      -0.36695439       0.83089062
H       -2.15104993       0.68240186      -0.58645962
H       -1.96315653      -1.08478833      -0.80483844
H        0.92729096      -1.11715062       1.12103599
H        2.03109536      -0.46739715      -0.13997395
H        1.03334398      -2.01736381      -0.46203427
14
Properties=species:S:1:pos:R:3 energy=-4305.170793189098 smiles=CCCC name=tbu config_type=start_22 pbc="F F F"
C        0.00142682       0.04040586      -0.24948427
C        0.48990682       1.45006850       0.25775751
C       -1.54852384      -0.24096887      -0.25937537
C        0.97966158      -1.17874124      -0.04925392
H        0.14834350       0.19510535      -1.34340616
H       -0.12718150       2.24457392      -0.23504262
H        1.53489480       1.62520503      -0.11563607
H        0.47461082       1.63151286       1.39299625
H       -2.04808491      -0.44628750       0.75397733
H       -2.06828919       0.62823352      -0.74375847
H       -1.75543748      -1.11105705      -0.93690987
H        1.07916848      -1.60043304       1.01418121
H        2.00097078      -0.88259194      -0.41242589
H        0.66443866      -2.01057823      -0.72987156
14
Properties=species:S:1:pos:R:3 energy=-4305.170793189098 smiles=CCCC name=tbu config_type=start_23 pbc="F F F"
C        0.05996518       0.09890014      -0.63402373
C        0.41379318       1.26891950       0.28922249
C       -1.36175816      -0.22219913      -0.15878863
C        0.83762642      -1.04744676       0.02091192
H        0.20644850       0.25127465      -1.71550584
H       -0.18691850       2.19696608       0.11958062
H        1.49097120       1.57688697       0.27209407
H        0.17646918       0.88885314       1.34546375
H       -1.26982909      -0.33871450       0.98031267
H       -2.12126081       0.57842648      -0.35674153
H       -1.78810852      -1.17390495      -0.56232013
H        0.52039952      -1.02283096       1.12539479
H        1.95552122      -0.94683406      -0.01386811
H        0.59618734      -2.06309177      -0.37740444
14
Properties=species:S:1:pos:R:3 energy=-4305.170793189098 smiles=CCCC name=tbu config_type=start_24 pbc="F F F"
C        0.04354833       0.08361806      -0.53757962
C        0.48901056       1.46868739       0.31098542
C       -1.57488555      -0.25271654      -0.21182419
C        0.98444118      -1.20819976      -0.00025618
H        0.19211066       0.23660214      -1.62135705
H       -0.11763075       2.36733870       0.06935866
H        1.55966291       1.74334672       0.20453385
H        0.31332708       1.23061287       1.38798101
H       -1.63272578      -0.39174013       0.89535568
H       -2.27894473       0.56519328      -0.47760060
H       -1.95000928      -1.18696107      -0.67984892
H        0.77867915      -1.29524692       1.09469077
H        2.07921744      -1.05715773      -0.11843694
H        0.72567970      -2.18409024      -0.46217219
14
Properties=species:S:1:pos:R:3 energy=-4305.170793189098 smiles=CCCC name=tbu config_type=start_25 pbc="F F F"
C        0.01784367       0.05568794      -0.34592838
C        0.41468944       1.25030061       0.23599458
C       -1.33539645      -0.21045146      -0.20633981
C        0.83284682      -1.01798824      -0.02808582
H        0.16268134       0.20977786      -1.43755495
H       -0.19646925       2.07420130      -0.18482066
H        1.46620309       1.45874528      -0.04807585
H        0.33775292       1.28975313       1.35047899
H       -1.68518822      -0.39326187       0.83893432
H       -1.91060527       0.64146672      -0.62289940
H       -1.59353672      -1.09800093      -0.81938108
H        0.82088885      -1.32801708       1.04488523
H        1.87727456      -0.77226827      -0.30785706
H        0.53494630      -1.88957976      -0.64510381
14
Properties=species:S:1:pos:R:3 energy=-4305.170793189098 smiles=CCCC name=tbu config_type=start_26 pbc="F F F"
C        0.07648112      -0.00221516      -0.44582503
C        0.49390839       1.37277192       0.32341488
C       -1.47142794      -0.28278775      -0.19066917
C        0.87767888      -1.06590554      -0.08204045
H        0.08979195       0.35607337      -1.52262216
H       -0.24236811       2.06425036      -0.22322373
H        1.51255791       1.76312120       0.07593757
H        0.32960435       1.48873174       1.43240987
H       -1.81945395      -0.33934767       0.87211011
H       -1.87195580       0.70243502      -0.61920474
H       -1.96367423      -1.11494568      -0.76225601
H        0.57358312      -1.01095080       1.03237006
H        1.99327799      -0.93209185      -0.09120547
H        0.65663321      -2.12094177      -0.42080931
14
Properties=species:S:1:pos:R:3 energy=-4305.170793189098 smiles=CCCC name=tbu config_type=start_27 pbc="F F F"
C       -0.01508912       0.14152116      -0.43768297
C        0.40979161       1.34621608       0.22356512
C       -1.43885406      -0.18038025      -0.22749483
C        0.93960912      -1.16028246       0.05369845
H        0.26500005       0.09030663      -1.53628984
H       -0.07173189       2.37728964       0.10776173
H        1.51330809       1.43897080       0.08052043
H        0.32147565       1.03163426       1.30605013
H       -1.49846005      -0.44565433       0.86217989
H       -2.31759420       0.50422498      -0.48129526
H       -1.57987177      -1.17001632      -0.73697399
H        1.02598488      -1.61231320       1.10720594
H        1.96321401      -0.89733415      -0.33508853
H        0.60399279      -1.95272823      -0.68646669
14
Properties=species:S:1:pos:R:3 energy=-4305.170793189098 smiles=CCCC name=tbu config_type=start_28 pbc="F F F"
C       -0.04088142       0.02326760      -0.45823532
C        0.43206541       1.40547575       0.33295908
C       -1.39086253      -0.23311931      -0.26519008
C        0.87361377      -1.15074749      -0.01512840
H        0.30236138       0.30189221      -1.50136412
H       -0.07093358       2.30497759      -0.09481901
H        1.49800110       1.45657450      -0.08559618
H        0.46693020       1.50588557       1.46376269
H       -1.32661206      -0.29616195       0.87884229
H       -2.06825134       0.63541520      -0.45032036
H       -1.91327557      -1.17341673      -0.62902869
H        0.89769978      -1.29211646       1.09171331
H        1.88376367      -0.68913552      -0.27640519
H        0.81209342      -2.17179986      -0.49842889
14
Properties=species:S:1:pos:R:3 energy=-4305.170793189098 smiles=CCCC name=tbu config_type=start_29 pbc="F F F"
C        0.10227342       0.11603840      -0.42527268
C        0.47163459       1.31351225       0.21402092
C       -1.51941947      -0.23004869      -0.15297392
C        0.94367423      -1.07544051      -0.01321360
H        0.05243062       0.14448779      -1.55754788
H       -0.24316642       2.13656241      -0.02064299
H        1.52786490       1.74551750       0.24205418
H        0.18414980       1.01448043       1.27469731
H       -1.99130194      -0.48884005       0.85544771
H       -2.12129866       0.57124480      -0.65017964
H       -1.63027043      -1.11154527      -0.87020131
H        0.70186822      -1.33114754       1.04786269
H        2.07272833      -1.14029048      -0.14988881
H        0.44853258      -1.90187014      -0.60884711
14
Properties=species:S:1:pos:R:3 energy=-4305.170793189098 smiles=CCCC name=tbu config_type=start_30 pbc="F F F"
C        0.01620228       0.07038380      -0.44385148
C        0.39333063       1.38655498       0.26874666
C       -1.43045511      -0.28505586      -0.20948854
C        0.95673053      -1.08718126      -0.00695040
H        0.11998247       0.22599275      -1.53721234
H        0.01918165       2.46459744       0.08269785
H        1.51092406       1.30698477      -0.02937862
H        0.43658782       1.20720097       1.37782926
H       -1.71721501      -0.28504368       0.87369867
H       -1.80087772       0.74594906      -0.58714147
H       -2.02751275      -1.10120398      -0.74157627
H        0.69428050      -1.36183257       1.04867873
H        2.09014281      -1.19341612      -0.15158463
H        0.41910382      -1.90153202      -0.60514194
14
Properties=species:S:1:pos:R:3 energy=-4305.170793189098 smiles=CCCC name=tbu config_type=start_31 pbc="F F F"
C        0.04518972       0.06892220      -0.43965652
C        0.51036937       1.33243302       0.27823334
C       -1.47982689      -0.17811214      -0.20867546
C        0.86055747      -1.13900674      -0.02139160
H        0.23480953       0.22038725      -1.52169966
H       -0.33328165       1.97694256      -0.19815985
H        1.51494194       1.89510723       0.18583662
H        0.21449218       1.31316503       1.36063074
H       -1.60069899      -0.49995832       0.86059133
H       -2.38867228       0.46071094      -0.51335853
H       -1.51603325      -1.18375802      -0.75765373
H        0.90528750      -1.26143143       1.09089727
H        1.86634919      -0.63600988      -0.27470937
H        0.84152218      -2.17213798      -0.50213406
14
Properties=species:S:1:pos:R:3 energy=-4305.170793189098 smiles=CCCC name=tbu config_type=start_32 pbc="F F F"
C        0.10876089       0.05923620      -0.43241260
C        0.46742939       1.33041068       0.27822886
C       -1.53157447      -0.26288531      -0.24647557
C        0.89138777      -1.04373206       0.00886228
H        0.50217746       0.18953541      -1.48992742
H       -0.19929921       2.11705716      -0.14182947
H        1.50813074       1.64420394       0.05487440
H        0.33841987       1.32271036       1.38051497
H       -1.43843714      -0.32456398       0.90522430
H       -2.20931221       0.61409340      -0.41183895
H       -2.05415282      -1.20797739      -0.60210252
H        0.87641697      -1.46499853       1.05756978
H        1.95597506      -0.94001931      -0.31354814
H        0.46226244      -1.82252264      -0.70502585
14
Properties=species:S:1:pos:R:3 energy=-4305.170793189098 smiles=CCCC name=tbu config_type=start_33 pbc="F F F"
C       -0.04736889       0.08006980      -0.45109540
C        0.43627061       1.38857732       0.26875114
C       -1.37870753      -0.20028269      -0.17168843
C        0.92590023      -1.18245594      -0.03720428
H       -0.14738546       0.25684459      -1.56898458
H       -0.11480079       2.32448284       0.02636747
H        1.51773526       1.55788806       0.10158360
H        0.31266013       1.19765564       1.35794503
H       -1.87947686      -0.46043802       0.82906570
H       -1.98023779       0.59256660      -0.68866105
H       -1.48939318      -1.07698461      -0.89712748
H        0.72315103      -1.15826547       1.08200622
H        2.00051694      -0.88940669      -0.11274586
H        0.79836356      -2.25114736      -0.40225015
14
Properties=species:S:1:pos:R:3 energy=-4305.170793189098 smiles=CCCC name=tbu config_type=start_34 pbc="F F F"
C        0.03682642       0.14808966      -0.42948027
C        0.41056126       1.27913658       0.27956349
C       -1.48309584      -0.20034924      -0.21581724
C        0.97060722      -1.14270017      -0.02575441
H        0.21012710       0.55407220      -1.47793324