14
Properties=species:S:1:pos:R:3 energy=-4305.117114564319 name=nbu_bent smiles=CCCC config_type=start_0 pbc="F F F"
C       -1.54422267       0.42024774       0.02358594
C       -1.33023954      -0.20096229      -0.66169973
C        0.90132341      -1.58313475      -0.03979841
C        2.20958318       1.01375336       0.60074935
H       -1.10438383       1.48936195       0.25901556
H       -3.11743011      -0.12520218       0.91625614
H       -3.38432829       1.39377391      -0.43747784
H       -1.11888928       0.22819823      -1.63300869
H       -0.87549195      -2.33578129      -1.15702934
H        0.17556588      -2.47657111       0.78577864
H        2.12263096      -2.50735860      -0.59336317
H        3.07833665       0.67891883       1.12763678
H        1.56659157       2.34612230       1.39675092
H        3.12502206       1.38714697      -0.36770607
14
Properties=species:S:1:pos:R:3 energy=-4305.117114564319 name=nbu_bent smiles=CCCC config_type=start_1 pbc="F F F"
C       -1.58519733       0.35787026       0.01380606
C        0.27626754      -0.76950171      -0.72293027
C        0.57304259       0.04717675       0.30492241
C        0.93055082      -0.06496536       0.32227465
H       -1.24007017       1.30608805       0.21874244
H       -0.63074989      -0.00235182       1.04247386
H       -1.55931771      -0.36263791      -0.76103416
H        0.64648928      -0.24308823      -1.66442131
H       -1.11368405      -0.56414871      -0.77463066
H        0.72299212      -0.07791489       1.36170136
H        0.61320904      -0.47003740      -0.25090283
H        1.90804135      -0.27012283       0.88302122
H        0.45681643       0.03217970       0.78881508
H        0.61393794       0.62934303      -0.55299793
14
Properties=species:S:1:pos:R:3 energy=-4305.117114564319 name=nbu_bent smiles=CCCC config_type=start_2 pbc="F F F"
C       -1.25332968       0.47005972       0.10366413
C       -0.68515980      -0.68088874       0.15930384
C        0.78491020      -0.52941557      -1.25123079
C        1.31077704       0.29832163       1.00067582
H        0.15443046       1.77657373       0.50300635
H       -1.58361213      -0.06764243       1.51145104
H       -2.41319866       0.20413404       1.31005447
H       -1.42979721      -0.48855262      -0.95045902
H       -1.97486824      -1.46001690      -2.57572386
H        0.93951703      -0.85574766      -0.68748583
H        1.77621801      -1.06564593      -2.33330887
H        1.18749044      -0.30041673       1.37915895
H        0.96934327       0.93794607       2.70336006
H        1.99174993       1.03924796      -0.47653526
14
Properties=species:S:1:pos:R:3 energy=-4305.117114564319 name=nbu_bent smiles=CCCC config_type=start_3 pbc="F F F"
C       -1.87609032       0.30805828      -0.06627213
C       -0.36881220      -0.28957526      -1.54393384
C        0.68945580      -1.00654243       1.51635479
C        1.82935696       0.65046637      -0.07765182
H       -2.49888446       1.01887627      -0.02524835
H       -2.16456787      -0.05991157       0.44727896
H       -2.53044734       0.82700196      -2.50856647
H        0.95739721       0.47366262      -2.34697098
H       -0.01430776      -1.43991310       0.64406386
H       -0.04095903      -1.69873834       2.83496583
H        0.95962199      -1.91175007       1.48904287
H        3.79888756       0.70921273       0.63149905
H        1.05406473       1.44035593      -0.51779406
H        1.74721007       0.97724204      -0.44416874
14
Properties=species:S:1:pos:R:3 energy=-4305.117114564319 name=nbu_bent smiles=CCCC config_type=start_4 pbc="F F F"
C       -5.29221980       4.83485653      -2.93555955
C       -4.24736649       4.02245207      -3.76107258
C       -3.01646176       3.76203536      -2.87885784
C       -2.22873772       4.93306546      -2.31195342
H       -4.82908216       5.72094103      -2.72314163
H       -5.53709337       4.43302894      -2.22188297
H       -6.17000555       4.95817577      -3.62557487
H       -4.03147983       4.62378002      -4.71478547
H       -4.82160248       3.21270295      -3.97167597
H       -3.25150745       3.23652009      -2.07468364
H       -2.38694709       2.99098447      -3.34689401
H       -1.37501937       4.78396652      -1.75350355
H       -2.76773821       5.58469037      -1.64104908
H       -1.93387857       5.41950843      -3.14998356
14
Properties=species:S:1:pos:R:3 energy=-4305.117114564319 name=nbu_bent smiles=CCCC config_type=start_5 pbc="F F F"
C        2.16279980      -4.05673853       2.97295155
C        3.19339449      -4.99291607       2.37644258
C        4.49082776      -5.29799336       3.14398184
C        5.36887172      -3.98427746       3.23497742
H        2.48462816      -2.92549103       3.20089963
H        1.78891337      -4.56058294       4.18061297
H        1.22635955      -3.92703977       2.42706287
H        3.55907983      -4.63867002       1.41735547
H        2.83242648      -6.11263295       2.04001597
H        4.15006545      -5.79100609       4.22216364
H        5.12278709      -5.96838047       2.50262801
H        6.36139737      -4.37517052       3.76416155
H        4.79114621      -3.20638837       3.82661508
H        5.67283857      -3.40301843       2.22927956
14
Properties=species:S:1:pos:R:3 energy=-4305.117114564319 name=nbu_bent smiles=CCCC config_type=start_6 pbc="F F F"
C       -2.70721945      -5.26413166      -7.12583813
C       -1.75589856      -6.13084282      -7.80027869
C       -0.39658648      -6.50177107      -7.06023035
C        0.47545985      -5.14214825      -6.68004894
H       -2.29146550      -4.22748676      -6.89858062
H       -3.13515390      -5.73285921      -6.13066435
H       -3.70666990      -5.07410618      -7.67054531
H       -1.49268025      -5.67908951      -8.76262202
H       -2.15039451      -7.21450097      -8.16723469
H       -0.71712689      -7.03674606      -6.12047682
H        0.29507006      -7.22809330      -7.64104360
H        1.37521498      -5.43926817      -6.14352882
H       -0.08701090      -4.36818968      -6.01160524
H        0.83877847      -4.61189550      -7.62911974
14
Properties=species:S:1:pos:R:3 energy=-4305.117114564319 name=nbu_bent smiles=CCCC config_type=start_7 pbc="F F F"
C       -0.42220055       6.04224966       7.16323013
C        0.70192656       5.16037882       6.41564869
C        1.87095248       4.96581307       7.32535435
C        2.66467415       6.09093625       7.60307294
H       -0.05298850       7.02293676       7.37633862
H       -0.61302610       5.60530521       8.08939435
H       -1.23697610       6.10524218       6.47203331
H        1.02028025       5.66419951       5.46519202
H        0.16121851       4.31457097       6.23557469
H        1.61568489       4.48226006       8.26795682
H        2.44076994       4.25069730       6.79677760
H        3.61116302       5.84806417       8.15418682
H        2.11041890       6.74649168       8.19717124
H        2.90018153       6.62838550       6.70841574
14
Properties=species:S:1:pos:R:3 energy=-4305.117114564319 name=nbu_bent smiles=CCCC config_type=start_8 pbc="F F F"
C       -5.91108115      -1.67320852       2.32585358
C       -4.83622397      -2.49900193       1.50657398
C       -3.55148601      -2.91699093       2.69411241
C       -2.63277371      -1.52023502       2.66229232
H       -5.70433486      -0.68884836       2.51752627
H       -6.29163018      -2.12527310       3.25173955
H       -6.82733543      -1.43728128       1.41890505
H       -4.35990990      -1.99748536       0.57500587
H       -5.09450694      -3.58717205       1.63232675
H       -3.94763593      -3.47330387       3.72214949
H       -2.95265328      -3.66903079       2.21178623
H       -1.51990418      -1.76131818       3.23059427
H       -3.23638708      -0.74852234       3.11113793
H       -2.36598364      -1.02059785       1.81627328
14
Properties=species:S:1:pos:R:3 energy=-4305.117114564319 name=nbu_bent smiles=CCCC config_type=start_9 pbc="F F F"
C        2.78166115       2.45132652      -2.28846158
C        3.78225197       1.52853793      -2.89120398
C        5.02585201       1.38103293      -2.42898841
C        5.77290771       2.46902302      -1.73926832
H        3.35988086       3.48429836      -2.03976827
H        2.54345018       1.99771910      -1.29300955
H        1.88368943       2.46841728      -2.61741705
H        3.88750990       1.98259536      -3.87243587
H        3.10533094       0.68724205      -3.56398675
H        4.84619393       0.91881787      -1.57466949
H        5.68849328       0.69163479      -3.05605223
H        6.50628218       2.17011418      -1.21993627
H        5.25979508       3.12682434      -0.92557193
H        6.10494364       3.03708785      -2.73697728
14
Properties=species:S:1:pos:R:3 energy=-4305.117114564319 name=nbu_bent smiles=CCCC config_type=start_10 pbc="F F F"
C       -1.66468394       0.70929187       0.03837409
C       -0.59367871      -0.71744615       0.29387635
C        0.72981431      -0.81068882       0.27113290
C        1.70380535       0.53285309      -0.71681633
H       -1.55435033       2.62959603       0.34892638
H       -2.14189540      -0.09876159       2.84192855
H       -2.62073452       0.57702371       0.29665863
H        0.00854873      -1.15662598      -0.71240491
H       -0.70658226      -2.43242291      -0.90843302
H        0.26561555      -1.09159554       2.08969903
H        1.32196587      -1.10889555      -0.98197419
H        2.90058245      -0.63720409      -0.30680557
H        1.07600314       1.53067471      -0.16967864
H        1.97643741       1.47819178      -2.33101611
14
Properties=species:S:1:pos:R:3 energy=-4305.117114564319 name=nbu_bent smiles=CCCC config_type=start_11 pbc="F F F"
C       -1.46473606       0.06882613      -0.00098209
C       -0.46029329      -0.25301785      -1.67850635
C        0.74455169      -0.72526918      -0.00600890
C        1.43632865       0.41593491       1.63984033
H       -0.79010367       0.16585397       0.12883162
H       -1.60628460      -0.02879241      -0.88319855
H       -2.32291148       0.45411229      -1.49517063
H       -0.48094873       1.14173598      -2.58502509
H       -1.28259374      -0.46750709      -1.02322698
H        0.63294245      -1.46289046       0.05778097
H        1.41387413      -1.86850045       0.13770819
H        2.08579555       1.04600009       2.31746357
H        0.94740486       0.84762729       2.35524464
H        1.76252259       0.53829822       1.41031211
14
Properties=species:S:1:pos:R:3 energy=-4305.117114564319 name=nbu_bent smiles=CCCC config_type=start_12 pbc="F F F"
C       -1.56564074       0.38875794       0.01871411
C       -0.50506814      -0.49620004      -0.68774271
C        0.73151374      -0.74327575       0.13747290
C        1.55464612       0.46054134       0.45199438
H       -1.17563015       1.39798207       0.23826235
H       -2.22887739      -0.17019812       1.42146233
H       -2.60265489       0.80072426      -1.07200985
H        0.34115368      -0.23194846      -1.59705231
H       -1.12264884      -0.77445597      -0.88953339
H        0.42196339      -1.51711447       0.48155908
H        1.49783344      -1.82000606       0.11010828
H        2.04215104      -0.17804333       0.88556402
H        1.05508561       1.39270436       1.60833086
H        2.21454316       1.13124139      -0.89267977
14
Properties=species:S:1:pos:R:3 energy=-4305.117114564319 name=nbu_bent smiles=CCCC config_type=start_13 pbc="F F F"
C       -1.56377926       0.38936006       0.01867789
C       -0.54890386      -0.47426396      -0.69688729
C        0.74285226      -0.79268225       0.12765110
C        1.58548788       0.48824666       0.47102962
H       -1.16882385       1.39746793       0.23949565
H       -1.51930261       0.04264412       0.53726767
H       -2.34099111       0.23041174      -0.12650215
H       -0.81355368       0.21705846      -1.70037769
H       -0.86652716      -2.12547403      -1.04212661
H        0.47659461      -1.03737153       1.66592092
H        1.23800656      -1.15738994      -0.95437428
H        2.94422696       0.58683933       1.12509398
H        0.96832239       0.98559764       0.57723514
H        1.52441684       0.88524861      -0.02802423
14
Properties=species:S:1:pos:R:3 energy=-4305.117114564319 name=nbu_bent smiles=CCCC config_type=start_14 pbc="F F F"
C       -1.56662416       0.38905371       0.02250893
C       -0.54460287      -0.47342908      -0.69897990
C        0.74536373      -0.76433323       0.21245253
C        1.58376022       0.45811241       0.38649446
H       -1.20440749       1.40661179       0.23950894
H       -1.39802131       0.07617387       0.40531398
H       -2.29070951       0.13488444       0.00950204
H       -0.97837551       0.28622185      -1.71678404
H       -0.97219912      -1.10915807      -0.83460768
H        0.41601809      -1.41495611       0.88974951
H        1.41477847      -1.67098831      -0.04731318
H        2.25180401      -0.13511439       0.84607079
H        1.05456107       1.35037571       1.34833807
H        2.12264405       1.11377468      -0.87039957
14
Properties=species:S:1:pos:R:3 energy=-4305.117114564319 name=nbu_bent smiles=CCCC config_type=start_15 pbc="F F F"
C       -1.56279584       0.38906429       0.01488307
C       -0.50936913      -0.49703492      -0.68565010
C        0.72900227      -0.77162477       0.05267147
C        1.55637378       0.49067559       0.53652954
H       -1.14004651       1.38883821       0.23824906
H       -2.35015869      -0.20372787       1.55341602
H       -2.65293649       0.89625156      -1.20801404
H        0.50597551      -0.30111185      -1.58064596
H       -1.01697688      -1.79077193      -1.09705232
H        0.48253991      -1.13952989       1.25773049
H        1.32106153      -1.30640769      -0.79695282
H        2.73457399       0.54391039       1.16458721
H        0.96884693       1.02792629       0.83722793
H        1.61631595       0.90271532      -0.05030443
14
Properties=species:S:1:pos:R:3 energy=-4305.117114564319 name=nbu_bent smiles=CCCC config_type=start_16 pbc="F F F"
C       -1.56509708       0.38774114       0.02269791
C       -0.50386593      -0.44979031      -0.77016228
C        0.74538364      -0.78955795       0.16673700
C        1.53959814       0.46427986       0.50315032
H       -1.18030845       1.36666928       0.23718676
H       -1.90315764      -0.06379596       0.90414706
H       -2.47210049       0.56590038      -0.78913050
H       -0.11006569       0.09322492      -1.70762539
H       -0.83627769      -2.10160043      -0.99502467
H        0.46700338      -1.04570220       1.70146010
H        1.23040960      -1.16950739      -0.88479516
H        1.92877585      -0.19282265       0.92286727
H        1.05555825       1.41044752       1.75854815
H        2.25739441       1.13786251      -0.87838496
14
Properties=species:S:1:pos:R:3 energy=-4305.117114564319 name=nbu_bent smiles=CCCC config_type=start_17 pbc="F F F"
C       -1.56432292       0.39037686       0.01469409
C       -0.55010607      -0.52067369      -0.61446772
C        0.72898236      -0.74640005       0.09838700
C        1.60053586       0.48450814       0.41987368
H       -1.16414555       1.42878072       0.24057124
H       -1.84502236      -0.06375804       1.05458294
H       -2.47154551       0.46523562      -0.40938150
H       -0.36233431      -0.10811492      -1.58980461
H       -1.15289831      -0.79832957      -0.93663533
H        0.43155462      -1.50878380       0.44601990
H        1.50543040      -1.80788861       0.04052916
H        3.05760215       0.60161865       1.08779073
H        0.96784975       0.96785448       0.42701785
H        1.48156559       0.87862749      -0.04231904
14
Properties=species:S:1:pos:R:3 energy=-4305.117114564319 name=nbu_bent smiles=CCCC config_type=start_18 pbc="F F F"
C       -1.61179872       0.49436206       0.02808551
C       -0.37531202      -0.43399823      -0.67586780
C        0.73659002      -0.94340369       0.10339651
C        1.44509450       0.54049138       0.46914694
H       -1.22795789       1.52251039       0.24977007
H       -1.54923519       0.12005786       1.02599303
H       -2.27741818       0.33389340      -0.64493530
H       -0.03388609       0.06846093      -1.62400199
H       -1.00182995      -1.68171509      -1.00480126
H        0.21070507      -1.66036248       0.98961144
H        1.67679663      -1.77417634      -0.44853521
H        2.32433669       0.30093554       1.01466125
H        0.90974444       1.14577425       1.12014442
H        1.66144105       1.08993432      -0.43541083
14
Properties=species:S:1:pos:R:3 energy=-4305.117114564319 name=nbu_bent smiles=CCCC config_type=start_19 pbc="F F F"
C       -1.51762128       0.28375594       0.00930649
C       -0.67865998      -0.53646577      -0.70876220
C        0.73777598      -0.59255431       0.16172749
C        1.69503950       0.40829662       0.45387706
H       -1.11649611       1.27293961       0.22798793
H       -2.19894481      -0.24761186       0.93273697
H       -2.66622782       0.69724260      -0.55357670
H       -0.43851391      -0.08335093      -1.67342801
H       -0.98734605      -1.21821491      -0.92685874
H        0.68785293      -0.89412352       1.15786856
H        1.05904337      -1.20321966      -0.39573079
H        2.66204131       0.10786046       0.99599675
H        1.11366356       1.23252775       1.06542158
H        2.07751895       0.92655568      -0.48529317
14
Properties=species:S:1:pos:R:3 energy=-4305.117114564319 name=nbu_bent smiles=CCCC config_type=start_20 pbc="F F F"
C       -1.46068525       0.43325672       0.04528471
C       -0.61485356      -0.34781453      -0.69662293
C        0.87003150      -0.79022242       0.16072856
C        1.46729475       0.33475961       0.42313345
H       -1.04697168       1.44995135       0.26928885
H       -2.14487372      -0.08486262       0.89177361
H       -2.60920433       0.87794730      -0.59547763
H       -0.34410335       0.18729422      -1.65077489
H       -0.81905096      -1.47551161      -0.92957562
H        0.50555393      -1.35631486       1.10994962
H        1.55930353      -1.54639067      -0.36690956
H        2.36568204       0.00991662       0.95408101
H        0.95885464       0.74183515       1.01960995
H        1.46644902       0.98877381      -0.55195573
14
Properties=species:S:1:pos:R:3 energy=-4305.117114564319 name=nbu_bent smiles=CCCC config_type=start_21 pbc="F F F"
C       -1.66873475       0.34486128      -0.00789271
C       -0.43911844      -0.62264947      -0.68800707
C        0.60433450      -0.74573558       0.10439544
C        1.67283925       0.61402839       0.49989055
H       -1.29748232       1.34549865       0.20846915
H       -1.60330628      -0.04269138       1.06695639
H       -2.33444167       0.15318870      -0.60303437
H       -0.12829665      -0.20218422      -1.64665511
H       -1.17012504      -1.42441839      -1.00208438
H        0.39300407      -1.19817114       1.03753038
H        1.17653647      -1.43100533      -0.47735644
H        2.62069596       0.39887938       1.05657699
H        1.06455336       1.63646685       1.16595605
H        2.27251098       1.02771619      -0.36874827
14
Properties=species:S:1:pos:R:3 energy=-4305.117114564319 name=nbu_bent smiles=CCCC config_type=start_22 pbc="F F F"
C       -1.59397918       0.35981186       0.21096573
C       -0.48892918      -0.39465750      -0.70804749
C        0.64380016      -0.77736387       0.08226863
C        1.64108458       0.40874676       0.42642908
H       -1.20127950       1.36964035       0.42492884
H       -1.84422150      -0.03997308       0.80205338
H       -2.44986120       0.53972703      -0.79312107
H       -0.08712918       0.36388486      -1.62494875
H       -1.38371591      -1.50375150      -1.07899767
H        0.47576481      -1.25233948       0.88023153
H        1.38425552      -1.45727405      -0.60942787
H        2.77257348      -0.08440304       0.94972221
H        1.03442878       1.22127206       0.89350411
H        1.90360566       1.03450177      -0.63658556
14
Properties=species:S:1:pos:R:3 energy=-4305.117114564319 name=nbu_bent smiles=CCCC config_type=start_23 pbc="F F F"
C       -1.53544082       0.41830614      -0.17357373
C       -0.56504282      -0.57580650      -0.67658251
C        0.83056584      -0.75859413       0.18285537
C        1.49904942       0.54004124       0.49659492
H       -1.14317450       1.42580965       0.05282916
H       -1.90395850      -0.08758092       1.15667662
H       -2.49378480       0.49140897      -0.40539093
H       -0.38527082      -0.37877486      -1.67248125
H       -0.60546009      -1.39617850      -0.85266233
H        0.42279319      -1.30214652       1.26724847
H        1.35158448      -1.52012195      -0.23483813
H        2.21380452       0.49319904       1.06093579
H        0.98897922       1.15702994       1.29206189
H        1.83535434       0.98198823      -0.28411844
14
Properties=species:S:1:pos:R:3 energy=-4305.117114564319 name=nbu_bent smiles=CCCC config_type=start_24 pbc="F F F"
C       -1.55185767       0.40302406      -0.07712962
C       -0.48982544      -0.37603861      -0.65481958
C        0.61743845      -0.78911154       0.12981981
C        1.64586418       0.37928824       0.47542682
H       -1.15751234       1.41113714       0.14697795
H       -1.83467075       0.08279170       1.10645466
H       -2.42509309       0.65786872      -0.47295115
H       -0.24841292      -0.03701513      -1.62996399
H       -0.96835678      -1.44920413      -0.93761932
H        0.26510927      -1.31537972       1.14638940
H        1.18968372      -1.53317807      -0.35236692
H        2.47208415       0.22078308       1.03023177
H        1.11267544       1.04670627       1.18749306
H        1.96484670       0.86098976      -0.36888619
14
Properties=species:S:1:pos:R:3 energy=-4305.117114564319 name=nbu_bent smiles=CCCC config_type=start_25 pbc="F F F"
C       -1.57756233       0.37509394       0.11452162
C       -0.56414656      -0.59442539      -0.72981042
C        0.85692755      -0.74684646       0.13530419
C        1.49426982       0.56949976       0.44759718
H       -1.18694166       1.38431286       0.33078005
H       -1.91350925      -0.21034570       0.85227534
H       -2.51855291       0.37326728      -0.72556085
H       -0.22398708       0.02212513      -1.66746601
H       -1.02081922      -1.45072587      -0.99404068
H        0.63344873      -1.23910628       1.00109060
H        1.54615628      -1.44421793      -0.49189908
H        2.51429385       0.18801292       0.98042623
H        0.91073256       1.33159573       0.99807294
H        1.77411330       1.15550024      -0.55181781
14
Properties=species:S:1:pos:R:3 energy=-4305.117114564319 name=nbu_bent smiles=CCCC config_type=start_26 pbc="F F F"
C       -1.51892488       0.31719084       0.01462497
C       -0.48492761      -0.47195408      -0.64239012
C        0.72089606      -0.81918275       0.15097483
C        1.53910188       0.52158246       0.39364255
H       -1.25983105       1.53060837       0.24571284
H       -1.95940811      -0.22029664       0.81387227
H       -2.47219809       0.67764320      -0.60154743
H       -0.23213565       0.22110374      -1.58553513
H       -1.15508495      -1.39681167      -0.96086489
H        0.67209820      -1.17813798       1.00478526
H        1.17601877      -1.46116268      -0.43477401
H        2.26698812       0.50507920       0.96791106
H        1.02673599       1.17177215       1.21472453
H        1.89580021       0.92413823      -0.32752331
14
Properties=species:S:1:pos:R:3 energy=-4305.117114564319 name=nbu_bent smiles=CCCC config_type=start_27 pbc="F F F"
C       -1.61049512       0.46092716       0.02276703
C       -0.56904439      -0.49850992      -0.74223988
C        0.75346994      -0.71677525       0.11414917
C        1.60103212       0.42720554       0.52938145
H       -1.08462295       1.26484163       0.23204516
H       -1.78877189       0.09274264       1.14485773
H       -2.47144791       0.35349280      -0.59696457
H       -0.24026435      -0.23599374      -1.71189487
H       -0.83409105      -1.50311833      -0.97079511
H        0.22645980      -1.37634802       1.14269474
H        1.55982123      -1.51623332      -0.40949199
H        2.71938988      -0.09628320       1.04274694
H        0.99667201       1.20652985       0.97084147
H        1.84315979       1.09235177      -0.59318069
14
Properties=species:S:1:pos:R:3 energy=-4305.117114564319 name=nbu_bent smiles=CCCC config_type=start_28 pbc="F F F"
C       -1.63628742       0.34267360       0.00221468
C       -0.54677059      -0.43925025      -0.63284592
C        0.80146147      -0.76951431       0.07645392
C        1.53503677       0.43674051       0.46055460
H       -1.04726162       1.47642721       0.26697088
H       -1.78797358       0.02043059       0.94227699
H       -2.48675490       0.37109650      -0.76308118
H       -0.09480980       0.23825757      -1.55418231
H       -0.66224306      -1.35362595      -0.95413271
H        0.47580266      -1.24515780       1.17366964
H        1.22641743      -1.51963373      -0.30154669
H        2.59110478       0.22391354       1.02725431
H        0.91722167       1.41472848       1.02952481
H        2.05126042       0.87328014      -0.40514289
14
Properties=species:S:1:pos:R:3 energy=-4305.117114564319 name=nbu_bent smiles=CCCC config_type=start_29 pbc="F F F"
C       -1.49313258       0.43544440       0.03517732
C       -0.50720141      -0.53121375      -0.75178408
C        0.67290453      -0.76644369       0.18867008
C        1.60509723       0.51204749       0.46246940
H       -1.29719238       1.31902279       0.21078712
H       -1.96020642      -0.14798459       1.01645301
H       -2.45689110       0.66003950      -0.43543082
H       -0.37759020      -0.25314757      -1.74324769
H       -1.32693294      -1.54630405      -0.97752729
H        0.42275534      -1.30932820       0.97381036
H        1.50942257      -1.45776227      -0.54271931
H        2.39527322       0.18488246       0.98340369
H        1.10618633       0.96357352       1.15604119
H        1.68769958       1.14320986      -0.51556111
14
Properties=species:S:1:pos:R:3 energy=-4305.117114564319 name=nbu_bent smiles=CCCC config_type=start_30 pbc="F F F"
C       -1.57920372       0.38978980       0.01659852
C       -0.58550537      -0.45817102      -0.69705834
C        0.76186889      -0.82145086       0.13215546
C        1.61815353       0.50030674       0.46873260
H       -1.22964053       1.40052775       0.23112266
H       -1.69785835       0.18005044       1.11979385
H       -2.47383194       0.22150677      -0.70686362
H       -0.12515218      -0.06042703      -1.64011574
H       -1.05284601      -1.34250768      -0.95927633
H        0.74317628      -1.13462394       1.03684853
H        1.11218025      -1.44742098      -0.41409427
H        2.38768550       0.15419743       0.98421973
H        1.12360081       0.91044788       1.15434537
H        1.65827082       1.14354798      -0.51185594
14
Properties=species:S:1:pos:R:3 energy=-4305.117114564319 name=nbu_bent smiles=CCCC config_type=start_31 pbc="F F F"
C       -1.55021628       0.38832820       0.02079348
C       -0.46846663      -0.51229298      -0.68757166
C        0.71249711      -0.71450714       0.13296854
C        1.52198047       0.44848126       0.45429140
H       -1.11481347       1.39492225       0.24663534
H       -2.05032165      -0.30760444       0.83893615
H       -2.46981406       0.80962923      -0.49164838
H       -0.34724782       0.04553703      -1.65731426
H       -0.93632999      -1.55742232      -0.97238367
H        0.15538172      -1.41986206       1.11063147
H        1.62365975      -1.52997502      -0.43017173
H        2.59869250       0.25459857       1.02643827
H        0.89980719       1.46785412       1.03122063
H        2.08068918       0.87294202      -0.40884806
14
Properties=species:S:1:pos:R:3 energy=-4305.117114564319 name=nbu_bent smiles=CCCC config_type=start_32 pbc="F F F"
C       -1.48664511       0.37864220       0.02803740
C       -0.51140661      -0.51431532      -0.68757614
C        0.66074953      -0.79928031       0.09516843
C        1.55281077       0.54375594       0.48454528
H       -0.84744554       1.36407041       0.27840758
H       -1.91633921      -0.16748984       0.89526653
H       -2.47662526       0.55872594      -0.62261060
H       -0.22332013       0.05508236      -1.63743003
H       -0.77406814      -1.38202798      -0.92775070
H        0.33474179      -1.26647960       1.21215105
H        1.08554018      -1.55419439      -0.27462052
H        2.56982197       0.05103147       0.99311078
H        0.98943306       1.16384469       0.99238186
H        1.70142944       1.22255736      -0.61173985
14
Properties=species:S:1:pos:R:3 energy=-4305.117114564319 name=nbu_bent smiles=CCCC config_type=start_33 pbc="F F F"
C       -1.64277489       0.39947580       0.00935460
C       -0.54256539      -0.45614868      -0.69705386
C        0.81361647      -0.73667769       0.16995557
C        1.58732323       0.40503206       0.43847872
H       -1.49700846       1.43137959       0.19935042
H       -1.83184079       0.03993584       1.06346347
H       -2.46702074       0.47241006      -0.57590140
H       -0.24907987      -0.06997236      -1.65999997
H       -1.21510786      -1.51790202      -1.00390930
H        0.56381621      -1.28800640       0.93532895
H        1.65029982      -1.42320161      -0.56964548
H        2.41655603       0.35776453       1.01754722
H        1.03397494       1.21445731       1.19318414
H        2.03753056       0.79393264      -0.30896415
14
Properties=species:S:1:pos:R:3 energy=-4305.117114564319 name=nbu_bent smiles=CCCC config_type=start_34 pbc="F F F"
C       -1.55857958       0.46749566       0.03096973
C       -0.56827474      -0.56558942      -0.68624151