14
Properties=species:S:1:pos:R:3 energy=-4305.138647313924 name=nbu_straight smiles=CCCC config_type=start_0 pbc="F F F"
C       -1.88581449      -0.17257495      -0.17775904
C       -0.77707559      -0.16715604       0.70578972
C        0.68109795      -0.04250812      -0.09317570
C        2.01489445       0.15334378       0.83981662
H       -2.78898122      -0.39386401       0.40522675
H       -2.24258382       0.80997285      -0.64478778
H       -1.97883755      -0.75907827      -0.97604420
H       -0.90255127       0.54334260       1.53878541
H       -0.52540196      -1.36904088       1.13701130
H        0.71683650      -0.82777772      -0.94895937
H        0.69157977       0.92159381      -0.56236493
H        1.93694255       0.87503642       1.66260133
H        2.13811335      -0.73843169       1.32323979
H        3.03293426       0.35751475       0.25143975
14
Properties=species:S:1:pos:R:3 energy=-4305.138647313924 name=nbu_straight smiles=CCCC config_type=start_1 pbc="F F F"
C       -1.89291151      -0.18337905      -0.17945296
C       -0.49882041      -0.26562996       0.69518428
C        0.62423805       0.23987012      -0.03346830
C        1.79335955      -0.03349578       0.79158338
H       -2.81248278      -0.42560799       0.39825125
H       -1.81187818       0.83125115      -0.62292622
H       -1.66273645      -1.06329773      -1.03208580
H       -0.59677873       0.46171340       1.53334459
H       -0.56665804      -1.06218512       1.20324470
H        0.81165350      -0.41231828      -0.84920663
H        0.43014023       1.27446819      -0.50304907
H        1.73424145       0.71065758       1.62023267
H        1.94589465      -1.13921831       1.21794221
H        2.59800174       0.22625925       0.21934625
14
Properties=species:S:1:pos:R:3 energy=-4305.138647313924 name=nbu_straight smiles=CCCC config_type=start_2 pbc="F F F"
C       -1.83543035      -0.16394726      -0.16388909
C       -0.66534451      -0.25028174       0.84799171
C        0.66093459       0.14000140      -0.30300194
C        1.85921666       0.02942737       0.90908591
H       -2.57094819      -0.34411748       0.44748720
H       -1.97691876       0.81994249      -0.54169699
H       -1.81063297      -0.96512994      -0.67336273
H       -0.95640210       0.41919772       1.65700648
H       -0.71581952      -1.21735404       0.89128620
H        0.84915672      -0.54704287      -1.20413626
H        0.63157929       1.17130577      -0.86373237
H        1.60943838       0.70541052       1.70616625
H        2.03466691      -0.98233497       1.54955113
H        2.83664577       0.29725687       0.23258998
14
Properties=species:S:1:pos:R:3 energy=-4305.138647313924 name=nbu_straight smiles=CCCC config_type=start_3 pbc="F F F"
C       -1.94329565      -0.19200674      -0.19332291
C       -0.61055149      -0.18250426       0.55298229
C        0.64440141       0.05736060       0.17635794
C        1.94903734       0.09042063       0.72231409
H       -3.03051581      -0.47535452       0.35599080
H       -2.07754324       0.82128151      -0.72601701
H       -1.83094103      -0.85724606      -1.33476727
H       -0.54292790       0.58585828       1.41512352
H       -0.37624048      -1.21387196       1.44896980
H        0.67933328      -0.69305313      -0.59402974
H        0.49014071       1.02475623      -0.20168163
H        2.06174562       0.88028348       1.57666775
H        2.04934109      -0.89531503       0.99163087
H        2.79429023       0.28651713       0.23819602
14
Properties=species:S:1:pos:R:3 energy=-4305.138647313924 name=nbu_straight smiles=CCCC config_type=start_4 pbc="F F F"
C       -2.53498664       0.59205772      -0.69029807
C       -1.28233680       0.56436078       0.16896260
C        0.00251766       0.88330250      -0.58491522
C        1.24615472       0.83218855       0.33532170
H       -3.43411789       0.33906698      -0.11129802
H       -2.66168179       1.59948164      -1.18832941
H       -2.46133101      -0.14170576      -1.52823880
H       -1.40702675       1.30467970       1.00500602
H       -1.20888835      -0.40801522       0.64950021
H        0.12324998       0.16175870      -1.44440597
H       -0.08950206       1.87393476      -1.03929047
H        1.16559866       1.58605154       1.16357319
H        1.38738541      -0.17749525       0.79707739
H        2.15670697       1.05594024      -0.23046485
14
Properties=species:S:1:pos:R:3 energy=-4305.138647313924 name=nbu_straight smiles=CCCC config_type=start_5 pbc="F F F"
C       -1.24373936      -0.94801172       0.33308607
C        0.00644080      -0.99714678       1.23201140
C        1.30281834      -0.68594050       0.45827122
C        2.56209928      -0.71234055       1.29607830
H       -2.16734611      -1.15853898       0.91477602
H       -1.39278021       0.04174236      -0.07938459
H       -1.18024299      -1.68067024      -0.47989120
H       -0.09230325      -0.29962370       2.06712398
H        0.11682835      -2.02321078       1.69075579
H        1.40524002      -1.40185470      -0.35376003
H        1.21122206       0.32212724      -0.02612353
H        2.50558534      -0.00035754       2.11926081
H        2.69662259      -1.70015475       1.74410461
H        3.47422903      -0.47216624       0.70125085
14
Properties=species:S:1:pos:R:3 energy=-4305.138647313924 name=nbu_straight smiles=CCCC config_type=start_6 pbc="F F F"
C       -2.08725144      -1.15713834      -1.41607561
C       -0.85080190      -1.19424148      -0.53064843
C        0.45629337      -0.89444092      -1.30915018
C        1.71453548      -0.91288965      -0.42125464
H       -2.99458979      -1.38405126      -0.83450527
H       -2.24565367      -0.16130184      -1.86535021
H       -2.03466876      -1.87934797      -2.22884824
H       -0.96729376      -0.47982965       0.30390016
H       -0.74622156      -2.21405992      -0.07719188
H        0.56221757      -1.61762319      -2.14515791
H        0.37503694       0.10393857      -1.78305899
H        1.64195322      -0.18466465       0.40319850
H        1.85170100      -1.90138464       0.04007486
H        2.63694526      -0.68154989      -1.00627400
14
Properties=species:S:1:pos:R:3 energy=-4305.138647313924 name=nbu_straight smiles=CCCC config_type=start_7 pbc="F F F"
C       -1.69147456       0.80118434       1.05886361
C       -0.42509410       0.76145548       1.93162243
C        0.84904263       1.09180292       1.18250618
C        2.09371852       1.03273765       2.05265464
H       -2.60687421       0.56457926       1.63798327
H       -1.80880833       1.80252584       0.59763621
H       -1.60690524       0.05697197       0.22071824
H       -0.53203624       1.48488565       2.76822984
H       -0.34583844      -0.21716608       2.41744788
H        0.96627243       0.37752719       0.34699191
H        0.74668306       2.09212343       0.71764499
H        2.02923078       1.77035865       2.87963550
H        2.23230700       0.02373464       2.50110714
H        2.99399074       1.26532389       1.47706000
14
Properties=species:S:1:pos:R:3 energy=-4305.138647313924 name=nbu_straight smiles=CCCC config_type=start_8 pbc="F F F"
C       -2.64217657      -0.53517221       0.22100542
C       -1.38432991      -0.56518818       1.08134574
C       -0.09015126      -0.27353879       0.38035155
C        1.17617364      -0.28555588       1.19688633
H       -3.58571611      -0.77114111       0.79641228
H       -2.79237140       0.46355040      -0.24027018
H       -2.57518388      -1.24943142      -0.65450925
H       -1.46391251       0.15784290       1.92122475
H       -1.25615679      -1.58578812       1.62014195
H        0.00267699      -1.00041690      -0.44036502
H       -0.18748524       0.72038628      -0.07649881
H        1.14050387       0.45237497       2.02684425
H        1.30621304      -1.27443987       1.62018033
H        2.08186418      -0.05951889       0.62971607
14
Properties=species:S:1:pos:R:3 energy=-4305.138647313924 name=nbu_straight smiles=CCCC config_type=start_9 pbc="F F F"
C       -1.13654943       0.17921821      -0.57821742
C        0.10843391       0.13240218       0.31962826
C        1.39548726       0.47090079      -0.50699555
C        2.63208036       0.40540388       0.43451367
H       -2.01574789      -0.04833089       0.00706572
H       -1.26209060       1.17767360      -1.02744382
H       -1.06639012      -0.57294458      -1.35362075
H       -0.03541749       0.84721310       1.15090525
H        0.16409679      -0.84543788       0.72011405
H        1.52581301      -0.23967910      -1.35780098
H        1.30920524       1.47567572      -0.98891519
H        2.53068013       1.13331903       1.25598975
H        2.77779496      -0.60321013       0.92100167
H        3.54907182       0.64329289      -0.15893007
14
Properties=species:S:1:pos:R:3 energy=-4305.138647313924 name=nbu_straight smiles=CCCC config_type=start_10 pbc="F F F"
C       -1.90667899      -0.12251104      -0.17519765
C       -0.64949952      -0.25661367       0.87130035
C        0.65139171       0.09128344      -0.03932082
C        1.92729116       0.07004941       0.61160755
H       -2.86691770      -0.19636968       0.42079977
H       -2.07361626       0.81455249      -0.31125153
H       -1.84657923      -0.90054356      -0.84888803
H       -0.70727328       0.30348402       1.69823866
H       -0.49614594      -1.38577970       1.18006945
H        0.73243356      -0.58789292      -0.72311373
H        0.55290051       1.16381471      -0.62967434
H        1.90615462       0.64707724       1.41414863
H        2.05314094      -0.87967136       1.05192623
H        2.83399357       0.37328417      -0.08861553
14
Properties=species:S:1:pos:R:3 energy=-4305.138647313924 name=nbu_straight smiles=CCCC config_type=start_11 pbc="F F F"
C       -1.87204701      -0.23344296      -0.18201435
C       -0.62639648      -0.17617233       0.52967365
C        0.65394429       0.10607856      -0.08732318
C        1.88096284       0.04979859       1.01979245
H       -2.73454630      -0.62310232       0.38267823
H       -1.98084574       0.82667151      -0.95646247
H       -1.79499477      -0.92183244      -1.15924197
H       -0.79205672       0.70157198       1.37389134
H       -0.59591406      -1.04544630       1.16018655
H        0.79605644      -0.65220308      -1.07505227
H        0.56881949       1.03224729      -0.43573966
H        1.76502938       0.93861676       1.86868537
H        2.03086706      -0.99797864       1.48925577
H        2.79694243       0.21048983       0.55940153
14
Properties=species:S:1:pos:R:3 energy=-4305.138647313924 name=nbu_straight smiles=CCCC config_type=start_12 pbc="F F F"
C       -1.88952421      -0.17802915      -0.17860286
C       -0.63415172      -0.21829272       0.70127894
C        0.65168606       0.10295973      -0.06247141
C        1.90145602       0.05752465       0.81405150
H       -2.80132144      -0.40969147       0.40163219
H       -2.08868198       0.80217932      -0.55728350
H       -1.84344775      -0.86179749      -1.08594837
H       -0.64966441       0.46364286       1.54501324
H       -0.56821079      -1.09861140       1.18334296
H        0.75951380      -0.66159496      -1.00165174
H        0.58336167       1.04064676      -0.44052011
H        1.75746993       0.72660622       1.62067310
H        2.04951791      -0.90356852       1.35988651
H        2.87523469       0.31319060       0.16051163
14
Properties=species:S:1:pos:R:3 energy=-4305.138647313924 name=nbu_straight smiles=CCCC config_type=start_13 pbc="F F F"
C       -1.88920179      -0.17792485      -0.17860914
C       -0.64174428      -0.21449328       0.69969506
C        0.65364994       0.09440227      -0.06417259
C        1.90679798       0.06232335       0.81734850
H       -2.80014256      -0.40978053       0.40184581
H       -1.96578002       0.83904468      -0.71043050
H       -1.79812625      -0.96057851      -0.92218163
H       -0.84966559       0.54141314       1.52711676
H       -0.52384921      -1.33261460       1.15691304
H        0.76897620      -0.57850104      -0.79651426
H        0.53835833       1.15541524      -0.62489389
H        1.91371407       0.85908778       1.66216090
H        2.03449009      -0.97408148       1.18129549
H        2.75570131       0.27058340       0.31027437
14
Properties=species:S:1:pos:R:3 energy=-4305.138647313924 name=nbu_straight smiles=CCCC config_type=start_14 pbc="F F F"
C       -1.88969454      -0.17797792      -0.17794558
C       -0.64099933      -0.21434867       0.69933261
C        0.65408494       0.09931247      -0.04948455
C        1.90649873       0.05710395       0.80270658
H       -2.80630582      -0.40819676       0.40184811
H       -1.94477348       0.84485220      -0.73328555
H       -1.78941722      -0.97712433      -0.89862501
H       -0.87821357       0.55339259       1.52427510
H       -0.54215213      -1.15658351       1.19285637
H        0.75848404      -0.64390061      -0.93095109
H        0.56897612       1.06645739      -0.46778630
H        1.79378289       0.73404173       1.61383267
H        2.04942706      -0.91090006       1.31485444
H        2.85931730       0.31016528       0.16437068
14
Properties=species:S:1:pos:R:3 energy=-4305.138647313924 name=nbu_straight smiles=CCCC config_type=start_15 pbc="F F F"
C       -1.88903146      -0.17797608      -0.17926642
C       -0.63489667      -0.21843733       0.70164139
C        0.65125106       0.09804953      -0.07715945
C        1.90175527       0.06274405       0.82869342
H       -2.79515818      -0.41127524       0.40162989
H       -2.10968852       0.79637180      -0.53442845
H       -1.85215678      -0.84525167      -1.10950499
H       -0.62111643       0.45166341       1.54785490
H       -0.54990787      -1.27464249       1.14739963
H        0.77000596      -0.59619539      -0.86721491
H        0.55274388       1.12960461      -0.59762770
H        1.87740111       0.85165227       1.66900133
H        2.03458094      -0.96674994       1.22632756
H        2.77161870       0.27360872       0.30641532
14
Properties=species:S:1:pos:R:3 energy=-4305.138647313924 name=nbu_straight smiles=CCCC config_type=start_16 pbc="F F F"
C       -1.88943004      -0.17820526      -0.17791285
C       -0.63394349      -0.21025432       0.68700345
C        0.65408839       0.09494342      -0.05740272
C        1.89884964       0.05817218       0.82291197
H       -2.80213175      -0.41511501       0.40144590
H       -2.03226566       0.82060872      -0.64688513
H       -1.82083506      -0.90247018      -1.03695223
H       -0.72781790       0.51996454       1.52586142
H       -0.51860985      -1.32847957       1.16507133
H        0.76731495      -0.57994396      -0.79035869
H        0.53704250       1.15331644      -0.61284244
H        1.73783278       0.72404636       1.62713421
H        2.04959978      -0.90049532       1.38590491
H        2.88265675       0.31433741       0.16298757
14
Properties=species:S:1:pos:R:3 energy=-4305.138647313924 name=nbu_straight smiles=CCCC config_type=start_17 pbc="F F F"
C       -1.88929596      -0.17774874      -0.17929915
C       -0.64195251      -0.22253168       0.71397055
C        0.65124761       0.10241858      -0.06924128
C        1.90940436       0.06167582       0.80848803
H       -2.79933225      -0.40435699       0.40203210
H       -2.02219634       0.82061528      -0.62082887
H       -1.82073894      -0.91990582      -0.97117777
H       -0.77151210       0.48509146       1.54626858
H       -0.57345015      -1.10274643       1.17518467
H        0.76117505      -0.66015204      -1.00780731
H        0.58467750       1.04274556      -0.45257156
H        1.93335122       0.86164764       1.65569979
H        2.03440822      -0.97715468       1.15527709
H        2.74827925       0.26943659       0.30779843
14
Properties=species:S:1:pos:R:3 energy=-4305.138647313924 name=nbu_straight smiles=CCCC config_type=start_18 pbc="F F F"
C       -1.89751900      -0.15973797      -0.17697969
C       -0.61167730      -0.20751905       0.70333574
C        0.65256529       0.06829655      -0.06837361
C        1.88248113       0.07137240       0.81702241
H       -2.81038487      -0.38812254       0.40362539
H       -1.97096450       0.85245313      -0.62578079
H       -1.78711510      -0.94265496      -1.01197689
H       -0.71462320       0.51567529       1.54034542
H       -0.54728434      -1.25575329       1.16337798
H        0.72292278      -0.68640624      -0.91365449
H        0.61435900       1.04858470      -0.53728000
H        1.80634592       0.80956779       1.64303339
H        2.02434409      -0.94633807       1.27533014
H        2.77943460       0.30603601       0.23971294
14
Properties=species:S:1:pos:R:3 energy=-4305.138647313924 name=nbu_straight smiles=CCCC config_type=start_19 pbc="F F F"
C       -1.88120700      -0.19621603      -0.18023231
C       -0.66421870      -0.22526695       0.69763826
C        0.65277071       0.12906545      -0.05827039
C        1.92577287       0.04847560       0.81437759
H       -2.79107913      -0.43134946       0.39985261
H       -2.08349750       0.78877087      -0.64193321
H       -1.85445890      -0.87972104      -0.99615311
H       -0.78470680       0.48938071       1.53178458
H       -0.54477566      -1.17547271       1.17687802
H        0.80556722      -0.55368976      -0.88451151
H        0.50736100       1.14747730      -0.52813400
H        1.86483808       0.77612621       1.63980061
H        2.05966391      -0.93131193       1.26585186
H        2.85150140       0.27773799       0.23107306
14
Properties=species:S:1:pos:R:3 energy=-4305.138647313924 name=nbu_straight smiles=CCCC config_type=start_20 pbc="F F F"
C       -1.87134539      -0.17032173      -0.17400070
C       -0.65316711      -0.19259160       0.69974085
C        0.67567804       0.09482833      -0.05844341
C        1.88632632       0.03573861       0.80905264
H       -2.77903714      -0.40069013       0.40700614
H       -2.07413212       0.81695986      -0.64902827
H       -1.84458214      -0.84842206      -1.00341057
H       -0.76835441       0.53625782       1.53570822
H       -0.51562609      -1.22003780       1.17640744
H        0.77399210      -0.63374365      -0.89281131
H        0.59400860       1.08803834      -0.52314202
H        1.81350715       0.75916184       1.63254059
H        2.03285022      -1.01630238       1.25791706
H        2.74566099       0.28851449       0.21952677
14
Properties=species:S:1:pos:R:3 energy=-4305.138647313924 name=nbu_straight smiles=CCCC config_type=start_21 pbc="F F F"
C       -1.90738061      -0.18563227      -0.18321130
C       -0.62272889      -0.24019440       0.70123315
C        0.62965796       0.10253367      -0.06820059
C        1.92192768       0.08410939       0.82234736
H       -2.82242686      -0.41878187       0.39647186
H       -1.98032988       0.82426414      -0.61868573
H       -1.79699186      -0.97395394      -1.00471943
H       -0.73097559       0.46879818       1.53642178
H       -0.57643391      -1.21118820       1.16384856
H        0.75449790      -0.60635235      -0.90535469
H        0.52771140       1.10802366      -0.54227198
H        1.85767685       0.82653216       1.65029341
H        2.05115778      -0.86134762       1.28326494
H        2.88527501       0.29525951       0.25125923
14
Properties=species:S:1:pos:R:3 energy=-4305.138647313924 name=nbu_straight smiles=CCCC config_type=start_22 pbc="F F F"
C       -1.89443257      -0.18304275      -0.14530391
C       -0.63135636      -0.20070504       0.69776205
C        0.63649362       0.09705549      -0.07203307
C        1.91642761       0.04855356       0.80962346
H       -2.80576404      -0.41460040       0.43396378
H       -2.02205762       0.82473496      -0.66456827
H       -1.81698310      -0.90700353      -1.03764342
H       -0.72384518       0.56684422       1.54018143
H       -0.61342893      -1.22492910       1.15052678
H        0.76883248      -0.61573458      -0.93259965
H        0.56368939       1.10347379      -0.56514742
H        1.88398281       0.74282519       1.63178562
H        2.04594005      -0.93326147       1.23607488
H        2.82137874       0.29643481       0.20486845
14
Properties=species:S:1:pos:R:3 energy=-4305.138647313924 name=nbu_straight smiles=CCCC config_type=start_23 pbc="F F F"
C       -1.88429343      -0.17291125      -0.21190809
C       -0.64453964      -0.23208096       0.70321195
C        0.66884238       0.10030651      -0.05461093
C        1.89182639       0.07129444       0.82177654
H       -2.79569996      -0.40487160       0.36951422
H       -2.03240438       0.81648904      -0.60314573
H       -1.82459090      -0.91537247      -0.97048658
H       -0.77548482       0.43821178       1.53194857
H       -0.47863107      -1.20629690       1.18972922
H        0.75965752      -0.62436142      -0.86556635
H        0.55803061       1.09258821      -0.50026658
H        1.78720119       0.84286881       1.65104838
H        2.03806795      -0.94438853       1.30510712
H        2.80955726       0.28733919       0.26591755
14
Properties=species:S:1:pos:R:3 energy=-4305.138647313924 name=nbu_straight smiles=CCCC config_type=start_24 pbc="F F F"
C       -1.88713691      -0.17555818      -0.19520348
C       -0.63151160      -0.19748015       0.70698140
C        0.63192764       0.09502074      -0.06379696
C        1.91725546       0.04345120       0.81811012
H       -2.79818335      -0.40741295       0.38582127
H       -2.02040339       0.84599844      -0.61184442
H       -1.81269314      -0.88654079      -0.98218836
H       -0.75178034       0.49740630       1.53931277
H       -0.54148662      -1.21548121       1.17501423
H        0.73234587      -0.62665347      -0.88649976
H        0.52998857       1.09032683      -0.52062316
H        1.83193653       0.79568498       1.64573029
H        2.05949277      -0.96349715       1.28699526
H        2.83198600       0.26638164       0.25123534
14
Properties=species:S:1:pos:R:3 energy=-4305.138647313924 name=nbu_straight smiles=CCCC config_type=start_25 pbc="F F F"
C       -1.89158909      -0.18039582      -0.16200852
C       -0.64438440      -0.23530585       0.69399260
C        0.67340836       0.10234126      -0.06284704
C        1.89099854       0.07639680       0.81328988
H       -2.80328065      -0.41205905       0.41765673
H       -2.03405861       0.79522556      -0.65586958
H       -1.82888086      -0.93583521      -1.02594164
H       -0.74754966       0.50764970       1.53281723
H       -0.55057338      -1.21574479       1.16524177
H        0.79614413      -0.61344253      -0.91166624
H        0.59173143       1.10573517      -0.54479084
H        1.83924747       0.79000902       1.63710371
H        2.02451523      -0.91415285       1.25418674
H        2.79895000       0.31739236       0.21955066
14
Properties=species:S:1:pos:R:3 energy=-4305.138647313924 name=nbu_straight smiles=CCCC config_type=start_26 pbc="F F F"
C       -1.88143279      -0.19042493      -0.17931112
C       -0.63066327      -0.21409320       0.70913424
C        0.64984702       0.08981225      -0.06013280
C        1.89876368       0.06809728       0.80394467
H       -2.81590547      -0.38671993       0.40292266
H       -2.04200853       0.79350200      -0.66252118
H       -1.82085197      -0.88311575      -1.00446189
H       -0.74896103       0.54211380       1.54700807
H       -0.57382889      -1.20640657       1.17098798
H        0.80283842      -0.60288251      -0.91102631
H        0.52762173       1.10280026      -0.53489649
H        1.79641286       0.84492651       1.63493602
H        2.04460762      -0.94183511       1.29171189
H        2.82002679       0.27731928       0.25839960
14
Properties=species:S:1:pos:R:3 energy=-4305.138647313924 name=nbu_straight smiles=CCCC config_type=start_27 pbc="F F F"
C       -1.89729321      -0.16552907      -0.17790088
C       -0.64523273      -0.21869280       0.69183976
C        0.65548898       0.10754975      -0.06651120
C        1.90949032       0.05175072       0.82745533
H       -2.78555853      -0.43275207       0.40055534
H       -2.01245347       0.84772200      -0.60519282
H       -1.82072203      -0.93926025      -1.00366811
H       -0.75036897       0.46294220       1.52512193
H       -0.51823111      -1.22481943       1.16926802
H        0.72565158      -0.63721349      -0.88713969
H        0.59409827       1.09326174      -0.53051751
H        1.87477114       0.74076749       1.64789798
H        2.03940038      -0.93581489       1.24947011
H        2.81090921       0.30645472       0.21238640
14
Properties=species:S:1:pos:R:3 energy=-4305.138647313924 name=nbu_straight smiles=CCCC config_type=start_28 pbc="F F F"
C       -1.90176057      -0.18601119      -0.18146065
C       -0.64137479      -0.20842873       0.71078735
C        0.66380136       0.09841508      -0.07304020
C        1.89805959       0.05340222       0.81553417
H       -2.77908736      -0.39610438       0.40660466
H       -2.01231520       0.83519718      -0.64028083
H       -1.82337328      -0.93621120      -1.03244035
H       -0.72517550       0.54508493       1.55243854
H       -0.48846617      -1.19892659       1.17215403
H        0.76883903      -0.61449068      -0.88177468
H        0.53635104       1.09267277      -0.51182084
H        1.85255151       0.79622719       1.64521457
H        2.02563918      -0.89975383       1.25963436
H        2.84695329       0.26851040       0.24495550
14
Properties=species:S:1:pos:R:3 energy=-4305.138647313924 name=nbu_straight smiles=CCCC config_type=start_29 pbc="F F F"
C       -1.87696543      -0.16994281      -0.17575135
C       -0.63452121      -0.22435727       0.69018665
C        0.64153464       0.09894692      -0.05360380
C        1.91019441       0.06644578       0.81586583
H       -2.82237664      -0.42336762       0.39687334
H       -2.04214680       0.80602682      -0.62743317
H       -1.81820072      -0.88616480      -0.97568965
H       -0.77415450       0.45997107       1.51969146
H       -0.60359383      -1.23229941       1.16810197
H        0.75965097      -0.62560532      -0.91639132
H        0.58536896       1.10338923      -0.55359316
H        1.81863249       0.78946681       1.63761943
H        2.05836882      -0.97789617       1.28154764
H        2.78398271       0.31526360       0.22583050
14
Properties=species:S:1:pos:R:3 energy=-4305.138647313924 name=nbu_straight smiles=CCCC config_type=start_30 pbc="F F F"
C       -1.89187339      -0.17785042      -0.17896929
C       -0.64808385      -0.21170590       0.69966543
C        0.65694372       0.08941940      -0.06339241
C        1.91245583       0.06441222       0.81695064
H       -2.81067632      -0.40925055       0.40039556
H       -1.99670678       0.86284415      -0.60953401
H       -1.82113496      -0.96212090      -1.02270319
H       -0.73043095       0.49335124       1.53755444
H       -0.55612058      -1.19700085       1.17126313
H        0.81514950      -0.59534565      -0.90547279
H        0.51656458       1.10518039      -0.53131465
H        1.81731826       0.78415201       1.63776077
H        2.06138510      -0.98709780       1.28125391
H        2.77888550       0.31532216       0.22647226
14
Properties=species:S:1:pos:R:3 energy=-4305.138647313924 name=nbu_straight smiles=CCCC config_type=start_31 pbc="F F F"
C       -1.88685261      -0.17810358      -0.17824271
C       -0.62781215      -0.22108010       0.70130857
C        0.64839228       0.10794260      -0.06325159
C        1.89579817       0.05543578       0.81444936
H       -2.79078768      -0.41022145       0.40308244
H       -2.05775522       0.77837985      -0.65817999
H       -1.82043904      -0.86025510      -0.98542681
H       -0.76889905       0.51170476       1.53457556
H       -0.53593942      -1.23422515       1.16899287
H        0.71334050      -0.64475035      -0.89269321
H        0.60515542       1.09088161      -0.53409935
H        1.85386574       0.80154199       1.64507323
H        2.02262290      -0.89055220       1.25992809
H        2.85205050       0.26845184       0.24431374
14
Properties=species:S:1:pos:R:3 energy=-4305.138647313924 name=nbu_straight smiles=CCCC config_type=start_32 pbc="F F F"
C       -1.87584177      -0.17978124      -0.17698802
C       -0.63524957      -0.22143038       0.70130779
C        0.63942933       0.09325945      -0.06979876
C        1.90113813       0.07193784       0.81968948
H       -2.74447820      -0.41556515       0.40858555
H       -2.03454878       0.80264841      -0.64842328
H       -1.82161878      -0.90371283      -1.00811014
H       -0.74743414       0.51335806       1.53801961
H       -0.50783484      -1.20384596       1.17672353
H        0.74440657      -0.61818372      -0.87510950
H        0.51195038       1.08668669      -0.50715709
H        1.84886522       0.76628314       1.63930074
H        2.03814656      -0.94320818       1.25320101
H        2.78636079       0.32900699       0.20917186
14
Properties=species:S:1:pos:R:3 energy=-4305.138647313924 name=nbu_straight smiles=CCCC config_type=start_33 pbc="F F F"
C       -1.90288423      -0.17617276      -0.18022398
C       -0.64064643      -0.21135562       0.69966621
C        0.66590667       0.10410255      -0.05684524
C        1.90711587       0.04791016       0.81171052
H       -2.85698580      -0.40390685       0.39489245
H       -2.01991322       0.83857559      -0.61929072
H       -1.81995522      -0.91866317      -1.00001986
H       -0.75189586       0.49169794       1.53411039
H       -0.58422516      -1.22738004       1.16353247
H        0.78408343      -0.62191228      -0.92305650
H        0.60976962       1.10937531      -0.55825691
H        1.82231878       0.81941086       1.64353326
H        2.04586144      -0.93444182       1.28798099
H        2.84457521       0.25476701       0.26161414
14
Properties=species:S:1:pos:R:3 energy=-4305.138647313924 name=nbu_straight smiles=CCCC config_type=start_34 pbc="F F F"