14
Properties=species:S:1:pos:R:3:forces:R:3:gap_forces:R:3 energy=-4302.092351723145 name=nbu_straight gap_energy=-4302.092351723145 config_type=start_0 pbc="F F F"
C       -1.96020732      -0.23239235      -0.29076776       3.35769669       7.40440339       5.67231057       3.35769669       7.40440339       5.67231057
C       -0.60726012      -0.10147488       0.73281826      -0.74156827       0.18694936      -1.89813508      -0.74156827       0.18694936      -1.89813508
C        0.76222597       0.06802026      -0.07166803      -5.40010845       2.70615859       4.63501804      -5.40010845       2.70615859       4.63501804
C        1.97888519       0.00196417       0.71645094       2.12574447       7.18901404       1.37280296       2.12574447       7.18901404       1.37280296
H       -2.72919895      -0.38117759       0.30808163      -5.54097963      -1.46368178       6.88330134      -5.54097963      -1.46368178       6.88330134
H       -2.21107443       0.77722558      -0.69773666       2.92703978       0.55342513      -1.81697704       2.92703978       0.55342513      -1.81697704
H       -1.96280285      -0.90582974      -0.95602209       4.51851022      -4.66221861      -7.93588986       4.51851022      -4.66221861      -7.93588986
H       -0.81763350       0.61420800       1.62704949       2.02956909      -0.38489639      -3.88733978       2.02956909      -0.38489639      -3.88733978
H       -0.41983781      -1.12960015       1.07007566      -2.53213719      -2.10379178       1.19722982      -2.53213719      -2.10379178       1.19722982
H        0.75473268      -0.59511165      -0.77678190       1.72255026      -2.55905114      -3.82000210       1.72255026      -2.55905114      -3.82000210
H        0.66268173       1.27515028      -0.74009066       1.44578821      -2.77781616       4.34715896       1.44578821      -2.77781616       4.34715896
H        1.87019928       0.74156228       1.76451180      -0.28568790       0.61091878      -2.75606693      -0.28568790       0.61091878      -2.75606693
H        2.07684842      -0.81827139       1.24276737      -0.08086697      -4.70680878       0.40524260      -0.08086697      -4.70680878       0.40524260
H        2.91583477       0.45345771       0.40697752      -3.54555030       0.00739537      -2.39865351      -3.54555030       0.00739537      -2.39865351
14
Properties=species:S:1:pos:R:3:forces:R:3:gap_forces:R:3 energy=-4303.027602903214 name=nbu_straight gap_energy=-4303.027602903214 config_type=start_1 pbc="F F F"
C       -2.02279161      -0.11532618      -0.17988025       7.51314241       0.94615060      -2.21620901       7.51314241       0.94615060      -2.21620901
C       -0.65283215      -0.17643727       0.70353367      -2.33033560      -3.72720527       0.90965257      -2.33033560      -3.72720527       0.90965257
C        0.51702488      -0.03634217      -0.05646748       9.61220503       4.71733522       2.21928260       9.61220503       4.71733522       2.21928260
C        2.00917241      -0.05087564       0.81932216      -9.81714088       5.88545315      -2.28518729      -9.81714088       5.88545315      -2.28518729
H       -2.80325322      -0.40456762       0.29233373      -5.55153150      -1.52389582       3.16910482      -5.55153150      -1.52389582       3.16910482
H       -1.99012505       0.82953796      -0.61894122      -0.90633624       0.36506949       0.37089509      -0.90633624       0.36506949       0.37089509
H       -1.94319240      -0.81058334      -1.07898416       0.29635334       0.34131326       0.69327241       0.29635334       0.34131326       0.69327241
H       -0.84529140       0.48676703       1.54407884      -0.91687572       0.50608808      -0.61150443      -0.91687572       0.50608808      -0.61150443
H       -0.49214388      -1.24261747       1.16052955      -2.53711499       1.33139530      -1.65488400      -2.53711499       1.33139530      -1.65488400
H        0.81344930      -0.48642032      -0.89109214      -3.04590823      -6.27108872      -5.09387033      -3.04590823      -6.27108872      -5.09387033
H        0.68853060       1.04603640      -0.33091319      -2.33290448       2.41822839       0.45656771      -2.33290448       2.41822839       0.45656771
H        1.68829189       0.86470227       1.64628229       4.05685562      -2.29552350      -0.59957777       4.05685562      -2.29552350      -0.59957777
H        1.98708922      -0.92249268       1.17235910       0.72021330      -5.60337002       4.94265700       0.72021330      -5.60337002       4.94265700
H        2.76900053       0.12485834       0.24160038       5.23937794       2.91004984      -0.30019935       5.23937794       2.91004984      -0.30019935
14
Properties=species:S:1:pos:R:3:forces:R:3:gap_forces:R:3 energy=-4297.21880699561 name=nbu_straight gap_energy=-4297.21880699561 config_type=start_2 pbc="F F F"
C       -2.15500328      -0.02689162      -0.17926339       7.36788160     -12.80347588       3.09504258       7.36788160     -12.80347588       3.09504258
C       -0.54725865      -0.26839985       0.70106250     -11.55477288      -0.15177828      10.66972477     -11.55477288      -0.15177828      10.66972477
C        0.66209964      -0.00420730       0.05542657     -12.92610060      -0.51368641     -19.03513477     -12.92610060      -0.51368641     -19.03513477
C        1.73098023       0.23971149       0.75325476      31.81702401      -0.60407615      13.38029663      31.81702401      -0.60407615      13.38029663
H       -2.93242394      -0.45378954       0.41657074       0.60832297       2.74698805      -1.21259328       0.60832297       2.74698805      -1.21259328
H       -2.06042188       0.82858162      -0.51409449      -2.30266628       8.72181501      -3.18035050      -2.30266628       8.72181501      -3.18035050
H       -1.88474999      -0.84061433      -0.95014829      -2.81094177       1.20670393      -0.66125815      -2.81094177       1.20670393      -0.66125815
H       -0.69723002       0.63572676       1.49572566      -2.95669091      -2.11890585      -1.61597596      -2.95669091      -2.11890585      -1.61597596
H       -0.67343968      -1.26732022       1.14275745      -0.25386910      -0.30907995      -1.13982778      -0.25386910      -0.30907995      -1.13982778
H        0.95953786      -0.63396782      -0.89546626      -2.30605195      -1.74796399       1.40652931      -2.30605195      -1.74796399       1.40652931
H        0.69823507       1.26410581      -0.59665858       0.57080228       0.27157964       1.55585954       0.57080228       0.27157964       1.55585954
H        1.88097152       0.59621742       1.74126380      -5.01772051       7.17160043       1.78209980      -5.01772051       7.17160043       1.78209980
H        2.01084482      -0.88805439       1.33885659      -1.58903570      -5.14768162      -1.56681441      -1.58903570      -5.14768162      -1.56681441
H        2.71285510       0.30210569       0.30858071       1.35381886       3.27796106      -3.47759778       1.35381886       3.27796106      -3.47759778
14
Properties=species:S:1:pos:R:3:forces:R:3:gap_forces:R:3 energy=-4301.664332977095 name=nbu_straight gap_energy=-4301.664332977095 config_type=start_3 pbc="F F F"
C       -1.87540057      -0.08889888       0.02223848      -7.84552842      -2.49886190      -8.21915145      -7.84552842      -2.49886190      -8.21915145
C       -0.55955757      -0.28428575       0.56316340      -7.26494996      -1.95562738       9.76855293      -7.26494996      -1.95562738       9.76855293
C        0.57955599      -0.00906279      -0.12223221      10.85189580      10.60909944       3.08353102      10.85189580      10.60909944       3.08353102
C        1.90028286       0.01578195       0.95168738       3.68945881       5.15999582      -6.31612752       3.68945881       5.15999582      -6.31612752
H       -2.82961290      -0.54805077       0.36629698       2.26337517       1.39454258       2.68071582       2.26337517       1.39454258       2.68071582
H       -2.00796701       0.72597053      -0.76043875       0.90256892       0.87199202       2.37414453       0.90256892       0.87199202       2.37414453
H       -1.95186492      -0.97962890      -1.07545056       1.80492471       0.98211027       3.68863710       1.80492471       0.98211027       3.68863710
H       -0.78097069       0.63570293       1.36852566      -1.36756420      -3.33280865      -3.94122022      -1.36756420      -3.33280865      -3.94122022
H       -0.57287370      -1.24639749       1.26424885       1.94274952       1.07582768      -3.78021578       1.94274952       1.07582768      -3.78021578
H        0.75643775      -0.52981184      -0.86151135      -1.02006464      -5.44404514      -2.47077779      -1.02006464      -5.44404514      -2.47077779
H        0.39607578       1.08132427      -0.39412765       3.49188358      -1.92559427       1.37827115       3.49188358      -1.92559427       1.37827115
H        1.89238613       0.83905622       1.75171888      -1.04094825      -1.52450052      -2.44234057      -1.04094825      -1.52450052      -2.44234057
H        2.26104321      -0.94344143       1.18098163      -1.98651668      -3.59775150       1.78319350      -1.98651668      -3.59775150       1.78319350
H        2.96886363       0.37037750       0.30850131      -4.42128436       0.18562156       2.41278728      -4.42128436       0.18562156       2.41278728
14
Properties=species:S:1:pos:R:3:forces:R:3:gap_forces:R:3 energy=-4288.549276733669 name=nbu_straight gap_energy=-4288.549276733669 config_type=start_4 pbc="F F F"
C       -1.81515850      -0.22303979      -0.37787334     -11.71941877      14.71535311      24.75303775     -11.71941877      14.71535311      24.75303775
C       -0.77851328      -0.02553498       0.89765404       6.17346131     -51.19254189     -45.05102531       6.17346131     -51.19254189     -45.05102531
C        0.69036058       0.06301278      -0.19639853       1.88159688      16.61458486      22.77793370       1.88159688      16.61458486      22.77793370
C        1.97344653       0.16286961       0.82755984      -7.87465902      -5.41621322      -9.80729593      -7.87465902      -5.41621322      -9.80729593
H       -2.95451064      -0.56538277       0.35336901       5.28567530       1.78359929      -4.91649106       5.28567530       1.78359929      -4.91649106
H       -2.11989029       0.92277176      -0.55952745      -0.83744134      -3.05000329      -1.86439297      -0.83744134      -3.05000329      -1.86439297
H       -1.70007841      -0.82047393      -1.00079647       0.36804467     -11.03307805     -11.23142849       0.36804467     -11.03307805     -11.23142849
H       -0.76255025       0.46002754       1.35202863       0.71412749      39.09596998      35.06032532       0.71412749      39.09596998      35.06032532
H       -0.40723420      -1.01104422       1.12097693      -3.90298056       6.46114790       0.14995340      -3.90298056       6.46114790       0.14995340
H        0.73108757      -0.46875031      -0.83257499       4.56712545      -9.81965745     -11.97556322       4.56712545      -9.81965745     -11.97556322
H        0.41295728       1.14414687      -0.37564348       3.86498092      -1.73455389      -1.65806621       3.86498092      -1.73455389      -1.65806621
H        2.07508156       0.85990048       1.51689576      -5.11053485       4.36083952       9.83616090      -5.11053485       4.36083952       9.83616090
H        1.92460276      -0.92754058       1.13562905       1.83423813       0.73203422       0.57388397       1.83423813       0.73203422       0.57388397
H        2.70298883       0.46383549       0.14275745       4.75578440      -1.51748108      -6.64703186       4.75578440      -1.51748108      -6.64703186
14
Properties=species:S:1:pos:R:3:forces:R:3:gap_forces:R:3 energy=-4299.5937745611745 name=nbu_straight gap_energy=-4299.5937745611745 config_type=start_5 pbc="F F F"
C       -1.75816411       0.02420013      -0.22626079     -15.03888404     -17.18933132       4.94045142     -15.03888404     -17.18933132       4.94045142
C       -0.59588382      -0.24080687       0.75231680       6.09575538       1.50259810      -8.98375970       6.09575538       1.50259810      -8.98375970
C        0.60435968       0.22733398      -0.27919524       3.72053953      -9.68640088       4.39213008       3.72053953      -9.68640088       4.39213008
C        2.06856404       0.01839695       0.65425603     -21.73032635      -3.56200671       6.90911257     -21.73032635      -3.56200671       6.90911257
H       -2.81251807      -0.45901925       0.37535518       1.79490034      -0.26914453      -0.21671595       1.79490034      -0.26914453      -0.21671595
H       -2.17908720       0.78002363      -0.54140338       0.17749448      11.74155237      -3.83207082       0.17749448      11.74155237      -3.83207082
H       -2.03245551      -0.88790026      -1.06392216       1.73444783       1.57524583       2.04099115       1.73444783       1.57524583       2.04099115
H       -0.70352110       0.53812089       1.46878611      -0.73896979       1.73050936       4.83559399      -0.73896979       1.73050936       4.83559399
H       -0.50079032      -1.35673285       1.26051368       0.62441696       2.96400480      -1.58856189       0.62441696       2.96400480      -1.58856189
H        0.65519732      -0.65240992      -0.96267547       3.03792116       2.47471727       0.85088623       3.03792116       2.47471727       0.85088623
H        0.53422269       1.18531850      -0.56288751       2.52054469       2.81868788      -0.93194150       2.52054469       2.81868788      -0.93194150
H        1.89460394       0.82742694       1.58061379       2.82487823      -1.26866484      -0.74556435       2.82487823      -1.26866484      -0.74556435
H        2.09554712      -1.15556033       1.10173664      -0.14488453       3.77127745      -2.58764866      -0.14488453       3.77127745      -2.58764866
H        2.81028217       0.32337950       0.24005649      15.12216612       3.39695522      -5.08290258      15.12216612       3.39695522      -5.08290258
14
Properties=species:S:1:pos:R:3:forces:R:3:gap_forces:R:3 energy=-4300.759509632064 name=nbu_straight gap_energy=-4300.759509632064 config_type=start_6 pbc="F F F"
C       -1.67732406      -0.16800712      -0.06575193     -19.85216087      -0.86624678      -6.64719015     -19.85216087      -0.86624678      -6.64719015
C       -0.55517841      -0.28503883       0.66884744      13.80777450       7.87745949       8.05167949      13.80777450       7.87745949       8.05167949
C        0.69441670       0.17293319       0.05996783      -3.36487319      -0.33229915      -8.45411964      -3.36487319      -0.33229915      -8.45411964
C        2.02716546       0.12608410       0.58869213      -3.66921390      -4.37188497      11.59879742      -3.66921390      -4.37188497      11.59879742
H       -2.79614377      -0.43000449       0.41961326       2.18185913       1.11729734       0.38982916       2.18185913       1.11729734       0.38982916
H       -2.17296920       1.02503556      -0.63309977       3.55196729      -1.47401657       3.03950780       3.55196729      -1.47401657       3.03950780
H       -1.91086757      -0.96753881      -0.99492289       5.82469947       0.64531643       1.95124906       5.82469947       0.64531643       1.95124906
H       -0.60690877       0.42538950       1.31659680       0.21646395      -0.71507750      -6.31776309       0.21646395      -0.71507750      -6.31776309
H       -0.51043973      -1.03996486       1.14605597       1.28630576      -4.81222106      -2.35000809       1.28630576      -4.81222106      -2.35000809
H        0.76415481      -0.42285467      -0.85519882      -1.67576417      -3.76506919       3.71441086      -1.67576417      -3.76506919       3.71441086
H        0.79067734       1.12644069      -0.52801633      -0.61714956       3.98305551       1.89858535      -0.61714956       3.98305551       1.89858535
H        1.95633149       0.79197830       1.58472340      -1.84798482       1.43140822       1.53906047      -1.84798482       1.43140822       1.53906047
H        2.18016927      -0.99803590       1.19912521      -2.04900014      -0.08661848      -1.51516473      -2.04900014      -0.08661848      -1.51516473
H        2.95873021       0.30368121       0.38408685       6.20707656       1.36889670      -6.89887391       6.20707656       1.36889670      -6.89887391
14
Properties=species:S:1:pos:R:3:forces:R:3:gap_forces:R:3 energy=-4297.053968211821 name=nbu_straight gap_energy=-4297.053968211821 config_type=start_7 pbc="F F F"
C       -1.88645575      -0.10366670      -0.20682741      -5.56910470     -12.28142318      -0.53560700      -5.56910470     -12.28142318      -0.53560700
C       -0.55461610      -0.30138434       0.63221826     -19.44714515       0.39080054       5.64487394     -19.44714515       0.39080054       5.64487394
C        0.58358392      -0.06573368       0.14767874       5.55469219       2.65345009     -17.75359692       5.55469219       2.65345009     -17.75359692
C        1.86451099      -0.00071949       0.68649539      16.61144691       2.16565406       8.11593675      16.61144691       2.16565406       8.11593675
H       -2.96672345      -0.37705516       0.26789774       4.96520388       1.33386602       0.05545722       4.96520388       1.33386602       0.05545722
H       -2.11120550       0.69103457      -0.71520504       3.17877348       5.68237926      -0.74664346       3.17877348       5.68237926      -0.74664346
H       -1.72459366      -1.11361164      -1.05301203      -1.35365147       3.59272245       2.47532475      -1.35365147       3.59272245       2.47532475
H       -0.88795079       0.51910660       1.64295113       2.26820172       0.91375806      -3.35433870       2.26820172       0.91375806      -3.35433870
H       -0.67226335      -1.15566244       1.06765820       2.82686075      -1.78570661      -0.80518173       2.82686075      -1.78570661      -0.80518173
H        0.73327302      -0.44951609      -0.89883772      -2.07998986      -2.51327241       1.44088277      -2.07998986      -2.51327241       1.44088277
H        0.55139797       0.99344205      -0.55068234      -4.04757024       1.95219542       2.32984293      -4.04757024       1.95219542       2.32984293
H        1.97366148       0.63456937       1.63751501      -2.95695326       8.80549611       4.35992018      -2.95695326       8.80549611       4.35992018
H        2.13660216      -0.66690684       1.44801477       0.72169467     -11.03523175       3.23221778       0.72169467     -11.03523175       3.23221778
H        2.84663656       0.28463460       0.20312091      -0.67245889       0.12531194      -4.45908851      -0.67245889       0.12531194      -4.45908851
14
Properties=species:S:1:pos:R:3:forces:R:3:gap_forces:R:3 energy=-4300.844289008806 name=nbu_straight gap_energy=-4300.844289008806 config_type=start_8 pbc="F F F"
C       -1.71893626      -0.10868325      -0.03191281     -23.92078888       3.51570067     -15.51071356     -23.92078888       3.51570067     -15.51071356
C       -0.69697720      -0.31521606       0.76136769      13.06071620       0.04377626      13.27636655      13.06071620       0.04377626      13.27636655
C        0.53692666       0.07858630      -0.06889329       3.03003177      -3.30635740      -4.01748269       3.03003177      -3.30635740      -4.01748269
C        1.80574751       0.09084723       0.83358028      11.93703685       2.53437255       4.75130621      11.93703685       2.53437255       4.75130621
H       -2.82630697      -0.51492302       0.42659427       3.06026998       2.18841428       0.94336570       3.06026998       2.18841428       0.94336570
H       -1.84170623       0.95336663      -0.61169739       1.23570384      -4.14790262       3.95628662       1.23570384      -4.14790262       3.95628662
H       -1.93294652      -0.90415203      -0.96997889       4.05971772       0.65093093       1.83827454       4.05971772       0.65093093       1.83827454
H       -0.75460617       0.38736025       1.63396218      -1.40439190       0.47024636      -1.54374462      -1.40439190       0.47024636      -1.54374462
H       -0.57021713      -1.20888877       1.22908853       1.34870140      -2.56091315      -1.77625172       1.34870140      -2.56091315      -1.77625172
H        0.88218648      -0.64606274      -0.91757143      -2.86199988      -1.50746172       1.14443265      -2.86199988      -1.50746172       1.14443265
H        0.72440692       1.05550951      -0.39800325      -0.83375948       3.79771362      -0.02505990      -0.83375948       3.79771362      -0.02505990
H        1.85685904       0.96829906       1.70774383      -2.24667060      -2.99720572      -3.13576060      -2.24667060      -2.99720572      -3.13576060
H        2.18020908      -0.98778782       1.26683390      -4.54475261       2.45604070      -2.39077309      -4.54475261       2.45604070      -2.39077309
H        2.82046798       0.42405220       0.15929908      -1.91981442      -1.13735478       2.48975392      -1.91981442      -1.13735478       2.48975392
14
Properties=species:S:1:pos:R:3:forces:R:3:gap_forces:R:3 energy=-4302.498965332107 name=nbu_straight gap_energy=-4302.498965332107 config_type=start_9 pbc="F F F"
C       -2.09671715      -0.10350376      -0.13741274      10.27491563      -3.03494776      -3.46959206      10.27491563      -3.03494776      -3.46959206
C       -0.47841424      -0.33183015       0.60739774      -9.67946866       9.84644022      -0.70066328      -9.67946866       9.84644022      -0.70066328
C        0.64444349       0.19704624      -0.06787215       0.48260154      -6.30074502       1.03216823       0.48260154      -6.30074502       1.03216823
C        1.85785414       0.02040319       0.76514372      15.59274463       3.90737077       6.64824063      15.59274463       3.90737077       6.64824063
H       -2.90572398      -0.28439537       0.52187715      -2.47262528       0.06420353       1.45166053      -2.47262528       0.06420353       1.45166053
H       -2.09203424       0.84297188      -0.64797860      -1.43158050       1.63988401       0.15109378      -1.43158050       1.63988401       0.15109378
H       -1.94340734      -0.88512030      -1.08755795      -1.01418775       1.59808026       2.68876602      -1.01418775       1.59808026       2.68876602
H       -0.73074075       0.55741238       1.43889594      -0.32676868      -2.54537068      -3.49097446      -0.32676868      -2.54537068      -3.49097446
H       -0.52601357      -1.14121170       1.04314232      -2.23460312      -7.79077797       2.04060073      -2.23460312      -7.79077797       2.04060073
H        0.82640702      -0.61547712      -0.88419774      -1.12608474       2.54073508       2.90491545      -1.12608474       2.54073508       2.90491545
H        0.67193690       1.19558569      -0.36103007      -0.81701876       1.27827040      -0.97428807      -0.81701876       1.27827040      -0.97428807
H        1.90734469       0.91016751       1.68912128      -2.86592247      -1.38522666      -2.16245528      -2.86592247      -1.38522666      -2.16245528
H        2.07512230      -0.95242758       1.29659970      -2.74300810       0.58810175      -2.99999056      -2.74300810       0.58810175      -2.99999056
H        2.88396948       0.36088046       0.42386844      -1.63899375      -0.40601793      -3.11948165      -1.63899375      -0.40601793      -3.11948165
14
Properties=species:S:1:pos:R:3:forces:R:3:gap_forces:R:3 energy=-4301.717524903488 name=nbu_straight gap_energy=-4301.717524903488 config_type=start_10 pbc="F F F"
C       -1.94685027      -0.04083571      -0.03057927       1.29089515      -0.18835202      -9.57304315       1.29089515      -0.18835202      -9.57304315
C       -0.63735542      -0.18861910       0.71715198       0.71602620      -1.01459012       4.09213980       0.71602620      -1.01459012       4.09213980
C        0.54781482       0.11232717      -0.22002107       0.57295113       4.60548649      -3.80352568       0.57295113       4.60548649      -3.80352568
C        2.06787756       0.28440095       0.83795996      -3.06598532     -12.04885649     -13.31479506      -3.06598532     -12.04885649     -13.31479506
H       -2.82033660      -0.18113805       0.32069498      -7.31964682      -0.99422458       8.71176982      -7.31964682      -0.99422458       8.71176982
H       -1.88765270       0.71336116      -0.65613709       0.35609500       7.77691857      -0.72180500       0.35609500       7.77691857      -0.72180500
H       -1.90055716      -0.84015696      -0.86448663       2.65184804      -5.68259746      -3.04563613       2.65184804      -5.68259746      -3.04563613
H       -0.74213761       0.47245581       1.57291929      -2.84451488       1.30948662       2.28868275      -2.84451488       1.30948662       2.28868275
H       -0.50770161      -1.19699211       1.27230226       0.38394399      -0.74643893       0.73661679       0.38394399      -0.74643893       0.73661679
H        0.97354107      -0.69344247      -0.82761294      -2.37210278      -1.09451026      -1.95515329      -2.37210278      -1.09451026      -1.95515329
H        0.65791167       1.27858832      -0.55485477       1.81948729      -2.91379183       0.77637635       1.81948729      -2.91379183       0.77637635
H        1.83863096       0.59079889       1.66231176       1.58681027       7.77476849      10.48599728       1.58681027       7.77476849      10.48599728
H        2.01093599      -0.91780275       1.20478732       5.29312773       0.55535370       1.20183659       5.29312773       0.55535370       1.20183659
H        2.83860479       0.35635544       0.03544531       0.93106500       2.66134781       4.12053893       0.93106500       2.66134781       4.12053893
14
Properties=species:S:1:pos:R:3:forces:R:3:gap_forces:R:3 energy=-4299.770337468528 name=nbu_straight gap_energy=-4299.770337468528 config_type=start_11 pbc="F F F"
C       -2.01621401      -0.18838970      -0.20982940       2.82928971     -11.13222227       4.66673455       2.82928971     -11.13222227       4.66673455
C       -0.65442167      -0.24661589       0.66476515       4.41008676       3.89961310       0.33802529       4.41008676       3.89961310       0.33802529
C        0.50516706       0.27279152      -0.08588066      -3.32191153      -2.42179759      -0.80720955      -3.32191153      -2.42179759      -0.80720955
C        2.05599485       0.22798919       0.75839414     -13.09520029      -6.10245766      13.33114177     -13.09520029      -6.10245766      13.33114177
H       -2.70488464      -0.37914949       0.42900935      -4.53443504      -6.69679915       1.77920669      -4.53443504      -6.69679915       1.77920669
H       -2.09445726       0.61553715      -0.44784895       5.25725333      16.33799452      -9.35418211       5.25725333      16.33799452      -9.35418211
H       -1.79955749      -0.93200738      -0.99872614      -1.08518894       2.61243758       3.21256275      -1.08518894       2.61243758       3.21256275
H       -0.57332413       0.40498454       1.57097685      -0.96189004       0.39472486      -1.03582012      -0.96189004       0.39472486      -1.03582012
H       -0.70500792      -1.22703962       1.14663716       0.72604215      -1.72152423      -0.36724185       0.72604215      -1.72152423      -0.36724185
H        0.82694074      -0.46568676      -0.71258934      -2.49407543      -4.88511886      -2.70526699      -2.49407543      -4.88511886      -2.70526699
H        0.64394574       1.12830443      -0.59392342      -4.79863472       6.04462603      -1.05868647      -4.79863472       6.04462603      -1.05868647
H        2.03635384       0.83956634       1.53401762      -3.17883762       3.00490317       3.99680060      -3.17883762       3.00490317       3.99680060
H        1.96985904      -0.77267990       1.20166705       2.43056664      -1.79966718       2.75567281       2.43056664      -1.79966718       2.75567281
H        2.75741588       0.28929084       0.32128217      17.81693503       2.46528769     -14.75173737      17.81693503       2.46528769     -14.75173737
14
Properties=species:S:1:pos:R:3:forces:R:3:gap_forces:R:3 energy=-4304.65041332962 name=nbu_straight gap_energy=-4304.65041332962 config_type=start_12 pbc="F F F"
C       -1.89417909      -0.19678005      -0.25531368      -0.48911474      -4.20189940       5.11595421      -0.48911474      -4.20189940       5.11595421
C       -0.61971689      -0.17240038       0.74948092       3.24124039      -1.60783589      -3.92379826       3.24124039      -1.60783589      -3.92379826
C        0.67843399       0.08374628       0.02464586      -1.21054312      -1.28846797      -4.26576982      -1.21054312      -1.28846797      -4.26576982
C        1.99894209       0.02491214       0.71713758      -5.79612915      -1.65060429       7.62061148      -5.79612915      -1.65060429       7.62061148
H       -2.83344076      -0.44423475       0.38216523      -1.28268213      -1.67236030      -0.42780021      -1.28268213      -1.67236030      -0.42780021
H       -2.15276323       0.72348855      -0.58486990       1.52850322       5.70846299      -3.31905867       1.52850322       5.70846299      -3.31905867
H       -1.88731232      -0.95247443      -1.07267618       2.03577564       0.35625865       1.53361144       2.03577564       0.35625865       1.53361144
H       -0.70963914       0.51788836       1.50605007      -1.12979817       1.31628586       1.47627790      -1.12979817       1.31628586       1.47627790
H       -0.46198054      -1.13525663       1.12321619      -0.46088613      -0.36625398      -0.71893176      -0.46088613      -0.36625398      -0.71893176
H        0.92034907      -0.60651050      -0.95248523      -1.19513311      -3.71327169       0.55916308      -1.19513311      -3.71327169       0.55916308