14
Properties=species:S:1:pos:R:3:forces:R:3:gap_forces:R:3 energy=-4306.981015297334 name=nbu_straight gap_energy=-4306.981015297334 config_type=start_0 pbc="F F F"
C       -1.91168948      -0.18585359      -0.16486875      -1.04304455       0.09494564      -1.42142894      -1.04304455       0.09494564      -1.42142894
C       -0.63864954      -0.20246764       0.69827536      -0.97750844      -1.28567943       2.27170298      -0.97750844      -1.28567943       2.27170298
C        0.68793800       0.08832950      -0.05039840      -2.42896327       0.70560757      -2.36882444      -2.42896327       0.70560757      -2.36882444
C        1.90705903       0.05946275       0.82988380       5.20883296       0.40140898      -0.43869907       5.20883296       0.40140898      -0.43869907
H       -2.82630828      -0.40561897       0.40063242      -1.13120412      -0.28924465       0.06598792      -1.13120412      -0.28924465       0.06598792
H       -2.03686183       0.81472140      -0.63399253      -1.16119423       0.65212462      -0.11670782      -1.16119423       0.65212462      -0.11670782
H       -1.84961264      -0.91457315      -1.02200735      -0.68618916      -0.39094944       0.37762241      -0.68618916      -0.39094944       0.37762241
H       -0.77164512       0.49976302       1.53400291      -1.62486781       0.47966699       0.06135738      -1.62486781       0.47966699       0.06135738
H       -0.54592241      -1.20851472       1.16935798      -1.37553071      -0.60160142      -0.27735808      -1.37553071      -0.60160142      -0.27735808
H        0.77547647      -0.61239817      -0.91592511       1.45324556      -0.05569274       0.29034621       1.45324556      -0.05569274       0.29034621
H        0.56868813       1.10682110      -0.53387021       1.53755876      -0.15574070       0.42704325       1.53755876      -0.15574070       0.42704325
H        1.84754897       0.78314902       1.65099015       1.10220655       1.00737669       0.48691336       1.10220655       1.00737669       0.48691336
H        2.08716899      -0.94244102       1.26729405       0.63221637      -0.67445780       0.06183191       0.63221637      -0.67445780       0.06183191
H        2.84711638       0.29442203       0.24049247       0.49444209       0.11223569       0.58021294       0.49444209       0.11223569       0.58021294
14
Properties=species:S:1:pos:R:3:forces:R:3:gap_forces:R:3 energy=-4307.027874790937 name=nbu_straight gap_energy=-4307.027874790937 config_type=start_1 pbc="F F F"
C       -1.89857555      -0.18965521      -0.17457486      -4.30503708       0.02659641      -0.18768342      -4.30503708       0.02659641      -0.18768342
C       -0.63726097      -0.22644991       0.71360254      -0.36428041      -0.01483610       1.13351175      -0.36428041      -0.01483610       1.13351175
C        0.65819011       0.09983942      -0.05912732       0.16042290       0.51549561      -1.61590597       0.16042290       0.51549561      -1.61590597
C        1.92033929       0.06182822       0.81812729       3.20372408       0.21022511       0.54086804       3.20372408       0.21022511       0.54086804
H       -2.81820909      -0.40643871       0.40457818      -1.02099968      -0.21145546      -0.05617810      -1.02099968      -0.21145546      -0.05617810
H       -2.05119206       0.81469392      -0.63420060      -1.01154641       0.62624451      -0.06480589      -1.01154641       0.62624451      -0.06480589
H       -1.82694526      -0.91412691      -0.99971606      -1.23615683      -1.09012923      -0.55043234      -1.23615683      -1.09012923      -0.55043234
H       -0.75917127       0.50365912       1.54110612      -1.64261800       0.21140784       0.26629421      -1.64261800       0.21140784       0.26629421
H       -0.56356986      -1.21071530       1.18335069      -1.36208085      -0.97467854       0.20824360      -1.36208085      -0.97467854       0.20824360
H        0.75359864      -0.61265826      -0.90109277       2.14955061      -0.23365140      -0.20924089       2.14955061      -0.23365140      -0.20924089
H        0.56637916       1.09667699      -0.54610500       1.61688887       0.54749009       0.10013322       1.61688887       0.54749009       0.10013322
H        1.85216961       0.78903922       1.65499695       1.11341166       0.70839665       0.31757129       1.11341166       0.70839665       0.31757129
H        2.06755978      -0.94189487       1.26743472       1.10817496      -0.63266341       0.21427795       1.10817496      -0.63266341       0.21427795
H        2.82837971       0.29313320       0.24635331       1.59054618       0.31155793      -0.09665346       1.59054618       0.31155793      -0.09665346
14
Properties=species:S:1:pos:R:3:forces:R:3:gap_forces:R:3 energy=-4307.14945961714 name=nbu_straight gap_energy=-4307.14945961714 config_type=start_2 pbc="F F F"
C       -1.92253878      -0.16853943      -0.20163992      -0.49903078      -0.94508408       1.53832871      -0.49903078      -0.94508408       1.53832871
C       -0.64764468      -0.22481462       0.71323257      -0.01774899       0.40593212      -0.23242534      -0.01774899       0.40593212      -0.23242534
C        0.67199697       0.09434173      -0.06350194      -2.37482735       0.33069904      -0.90960398      -2.37482735       0.33069904      -0.90960398
C        1.91781197       0.04908914       0.84461789       3.71422255       0.92045210      -0.63090499       3.71422255       0.92045210      -0.63090499
H       -2.83446095      -0.41695319       0.39829064      -1.10366486      -0.10402053      -0.41923020      -1.10366486      -0.10402053      -0.41923020
H       -2.07580889       0.81811840      -0.63496781      -0.60415086       1.13689666      -0.59304349      -0.60415086       1.13689666      -0.59304349
H       -1.85065625      -0.91761364      -1.01215331      -1.23154078      -0.58068488      -0.58674067      -1.23154078      -0.58068488      -0.58674067
H       -0.75396546       0.51147092       1.52268598      -1.88262253       0.18880261       0.41760016      -1.88262253       0.18880261       0.41760016
H       -0.54144741      -1.20710979       1.16999935      -1.98610116      -1.10201495       0.27464295      -1.98610116      -1.10201495       0.27464295
H        0.76981896      -0.61917831      -0.90430592       1.65492728      -0.16202090      -0.17194891       1.65492728      -0.16202090      -0.17194891
H        0.59181484       1.11100812      -0.54117616       1.11774711       0.04817450       0.25553750       1.11774711       0.04817450       0.25553750
H        1.85702017       0.78504229       1.66765628       0.93761878       0.73547520       0.37410550       0.93761878       0.73547520       0.37410550
H        2.06302123      -0.94797828       1.27146796       1.31226441      -0.99834814       0.40528457       1.31226441      -0.99834814       0.40528457
H        2.83427561       0.29663075       0.25495833       0.96290720       0.12574124       0.27839819       0.96290720       0.12574124       0.27839819
14
Properties=species:S:1:pos:R:3:forces:R:3:gap_forces:R:3 energy=-4307.134288284035 name=nbu_straight gap_energy=-4307.134288284035 config_type=start_3 pbc="F F F"
C       -1.90432609      -0.17225141      -0.19240946      -1.30707499      -0.16446245       0.68941310      -1.30707499      -0.16446245       0.68941310
C       -0.62413982      -0.21601568       0.71084817      -0.64958005       0.15536424       0.26227595      -0.64958005       0.15536424       0.26227595
C        0.69010015       0.10064055      -0.06967983      -2.42305577       0.17061568      -0.60319455      -2.42305577       0.17061568      -0.60319455
C        1.93276763       0.06575081       0.82447605       3.28279215      -0.16563538      -0.52380986       3.28279215      -0.16563538      -0.52380986
H       -2.82259431      -0.42829705       0.38338307      -1.11302369      -0.06986858      -0.05364506      -1.11302369      -0.06986858      -0.05364506
H       -2.04489475       0.82750551      -0.63347818      -1.17452560       0.77308307      -0.27418410      -1.17452560       0.77308307      -0.27418410
H       -1.83824370      -0.90589952      -1.01177941      -1.07304002      -0.96445413      -0.88065551      -1.07304002      -0.96445413      -0.88065551
H       -0.75813362       0.49501128       1.54735710      -1.54076661       0.28819590       0.42359563      -1.54076661       0.28819590       0.42359563
H       -0.56410729      -1.21271764       1.15453557      -1.44343547      -1.01402358       0.25985893      -1.44343547      -1.01402358       0.25985893
H        0.76499622      -0.61750888      -0.90162504       2.23003670      -0.21413387      -0.12219381       2.23003670      -0.21413387      -0.12219381
H        0.58577768       1.10365815      -0.52204343       1.82135152       0.53877760      -0.01139671       1.82135152       0.53877760      -0.01139671
H        1.86325299       0.79171396       1.64718806       1.05649447       0.83738338       0.41346643       1.05649447       0.83738338       0.41346643
H        2.05070480      -0.94934697       1.26755381       1.47572976      -0.17837390      -0.05022639       1.47572976      -0.17837390      -0.05022639
H        2.83775457       0.29553802       0.22616468       0.85809760       0.00753203       0.47069595       0.85809760       0.00753203       0.47069595
14
Properties=species:S:1:pos:R:3:forces:R:3:gap_forces:R:3 energy=-4307.1155017347155 name=nbu_straight gap_energy=-4307.1155017347155 config_type=start_4 pbc="F F F"
C       -1.93068043      -0.16770922      -0.19810195       0.50293019      -1.08425282       0.51862803       0.50293019      -1.08425282       0.51862803
C       -0.65069713      -0.23369367       0.69329306       1.24699776       0.54311236       1.51911654       1.24699776       0.54311236       1.51911654
C        0.66806102       0.09225429      -0.06691195      -1.93712557      -0.16477031      -0.93007180      -1.93712557      -0.16477031      -0.93007180
C        1.93157925       0.06404781       0.83989785       1.35385034      -0.37664741      -1.25663224       1.35385034      -0.37664741      -1.25663224
H       -2.81656048      -0.43195639       0.40075097      -1.57518742       0.13733994      -0.22261517      -1.57518742       0.13733994      -0.22261517
H       -2.05290130       0.83235946      -0.64350969      -1.48695600       0.41460143      -0.25302959      -1.48695600       0.41460143      -0.25302959
H       -1.84099627      -0.93400085      -1.01224103      -1.39106943      -0.18997845      -0.35222396      -1.39106943      -0.18997845      -0.35222396
H       -0.75865053       0.50651886       1.53256064      -1.88587984      -0.19864588      -0.39664101      -1.88587984      -0.19864588      -0.39664101
H       -0.54624081      -1.21490529       1.19247065      -1.88377041      -0.59956370      -0.21534546      -1.88377041      -0.59956370      -0.21534546
H        0.77077998      -0.61991452      -0.90985186       1.56447305      -0.05848919       0.01054099       1.56447305      -0.05848919       0.01054099
H        0.56950536       1.08958056      -0.52439361       1.76048508       0.54886331       0.14825900       1.76048508       0.54886331       0.14825900
H        1.85038564       0.79994336       1.63283866       1.13089450       1.12938280       1.19751308       1.13089450       1.12938280       1.19751308
H        2.07368861      -0.94737251       1.27725007       1.17401709      -0.26845912       0.23794807       1.17401709      -0.26845912       0.23794807
H        2.82142290       0.29247400       0.23366596       1.42634066       0.16750705      -0.00544648       1.42634066       0.16750705      -0.00544648
14
Properties=species:S:1:pos:R:3:forces:R:3:gap_forces:R:3 energy=-4307.1722312627835 name=nbu_straight gap_energy=-4307.1722312627835 config_type=start_5 pbc="F F F"
C       -1.92095142      -0.16570037      -0.18449775      -0.67494381      -0.84073641       0.07698632      -0.67494381      -0.84073641       0.07698632
C       -0.64436787      -0.19930793       0.71434439      -0.62775728      -0.76261550       0.63164447      -0.62775728      -0.76261550       0.63164447
C        0.65480783       0.10857446      -0.08248743      -0.65834301      -0.01512002      -0.38949691      -0.65834301      -0.01512002      -0.38949691
C        1.91085527       0.06924756       0.82113305       5.11300578      -0.05731970       0.53947211       5.11300578      -0.05731970       0.53947211
H       -2.81889253      -0.42033954       0.38846510      -1.58853647      -0.13686615      -0.14058226      -1.58853647      -0.13686615      -0.14058226
H       -2.03322441       0.82802226      -0.63736081      -1.56157554       0.66920207      -0.25942110      -1.56157554       0.66920207      -0.25942110
H       -1.84601980      -0.91156366      -1.02338514      -1.00961075      -0.22598911      -0.01104069      -1.00961075      -0.22598911      -0.01104069
H       -0.75303043       0.51470846       1.54059114      -2.09789012       0.26389365       0.41110702      -2.09789012       0.26389365       0.41110702
H       -0.54622682      -1.21500993       1.18534287      -1.89158634      -0.29702064       0.00854191      -1.89158634      -0.29702064       0.00854191
H        0.79246437      -0.62498215      -0.90115769       1.19105329      -0.15343673      -0.51651758       1.19105329      -0.15343673      -0.51651758
H        0.58112193       1.10632155      -0.53483413       1.41568805       0.86418367      -0.50856773       1.41568805       0.86418367      -0.50856773
H        1.85900701       0.80794006       1.65094161       0.91586287       0.37520306       0.13174377       0.91586287       0.37520306       0.13174377
H        2.06813378      -0.95732412       1.26840807       0.60668206       0.14499543      -0.08590602       0.60668206       0.14499543      -0.08590602
H        2.84222746       0.28179910       0.24706808       0.86795125       0.17162637       0.11203668       0.86795125       0.17162637       0.11203668
14
Properties=species:S:1:pos:R:3:forces:R:3:gap_forces:R:3 energy=-4307.0529636443935 name=nbu_straight gap_energy=-4307.0529636443935 config_type=start_6 pbc="F F F"
C       -1.90763226      -0.19956884      -0.17935267      -2.97070342       0.91422737       0.05520499      -2.97070342       0.91422737       0.05520499
C       -0.62686181      -0.20944735       0.71315061      -1.07722338      -1.05652226       0.65468761      -1.07722338      -1.05652226       0.65468761
C        0.65113894       0.09909921      -0.06105779      -0.04854090       0.55877162      -1.41603354      -0.04854090       0.55877162      -1.41603354
C        1.92164202       0.05684220       0.81151218       4.26739156       0.96929645       0.66775067       4.26739156       0.96929645       0.66775067
H       -2.81582644      -0.40003318       0.40756604      -1.41399365      -0.36976071      -0.01318355      -1.41399365      -0.36976071      -0.01318355
H       -2.06468522       0.83631068      -0.62522071      -0.89774895      -0.23608267       0.08907703      -0.89774895      -0.23608267       0.08907703
H       -1.83020898      -0.91189179      -1.00298360      -1.20432434      -0.98706075      -0.66724105      -1.20432434      -0.98706075      -0.66724105
H       -0.74967751       0.49342670       1.53416725      -1.78049889       0.62469504       0.48512825      -1.78049889       0.62469504       0.48512825
H       -0.55447505      -1.21502309       1.18854932      -1.55991148      -0.44599331      -0.02329897      -1.55991148      -0.44599331      -0.02329897
H        0.77864264      -0.62061154      -0.89404991       1.74758988      -0.07757593      -0.14685782       1.74758988      -0.07757593      -0.14685782
H        0.54335973       1.09851402      -0.54103091       1.51224452       0.49728208       0.07192402       1.51224452       0.49728208       0.07192402
H        1.86074978       0.79938367       1.65085470       1.12773200       0.56465918      -0.10450483       1.12773200       0.56465918      -0.10450483
H        2.06091078      -0.92853455       1.27173317       1.18341362      -1.12813459       0.24848116       1.18341362      -1.12813459       0.24848116
H        2.84328128       0.28586122       0.24094151       1.11457344       0.17219849       0.09886603       1.11457344       0.17219849       0.09886603
14
Properties=species:S:1:pos:R:3:forces:R:3:gap_forces:R:3 energy=-4307.168087740067 name=nbu_straight gap_energy=-4307.168087740067 config_type=start_7 pbc="F F F"
C       -1.92178196      -0.17981843      -0.19895060      -0.97712227      -0.29663092       1.12557729      -0.97712227      -0.29663092       1.12557729
C       -0.65452724      -0.21122637       0.71408991       1.27451246      -0.89911477       0.19658068       1.27451246      -0.89911477       0.19658068
C        0.66158842       0.09914491      -0.06002659      -1.47427664       0.60056059      -1.83086211      -1.47427664       0.60056059      -1.83086211
C        1.93184557       0.06639877       0.81097141       1.51907604      -0.19559405       0.48097829       1.51907604      -0.19559405       0.48097829
H       -2.81242849      -0.40260037       0.39356253      -1.58545210      -0.48079695       0.19654738      -1.58545210      -0.48079695       0.19654738
H       -2.05915149       0.81216608      -0.62595024      -1.17383671       1.24486148      -0.73866323      -1.17383671       1.24486148      -0.73866323
H       -1.84422389      -0.91013459      -1.01331489      -1.03761646      -0.86751722      -0.58270887      -1.03761646      -0.86751722      -0.58270887
H       -0.74944192       0.49762426       1.52733168      -2.08703835       0.60413666       0.55295145      -2.08703835       0.60413666       0.55295145
H       -0.57261555      -1.22155559       1.17606217      -1.36395538      -0.30051060      -0.09965441      -1.36395538      -0.30051060      -0.09965441
H        0.76953966      -0.61285084      -0.91508275       1.73252537      -0.01731792      -0.03677330       1.73252537      -0.01731792      -0.03677330
H        0.56417967       1.11847755      -0.52484920       1.49049851       0.09104672       0.27515398       1.49049851       0.09104672       0.27515398
H        1.85265475       0.80312986       1.63343375       1.21938254       0.87977587       0.52858184       1.21938254       0.87977587       0.52858184
H        2.07540671      -0.93025079       1.27489769       0.81907499      -0.64960615       0.19536633       0.81907499      -0.64960615       0.19536633
H        2.84455476       0.29229969       0.25010242       1.64422799       0.28670726      -0.26307531       1.64422799       0.28670726      -0.26307531
14
Properties=species:S:1:pos:R:3:forces:R:3:gap_forces:R:3 energy=-4306.945135337512 name=nbu_straight gap_energy=-4306.945135337512 config_type=start_8 pbc="F F F"
C       -1.89451594      -0.17315819      -0.17798829      -4.74716670      -1.10117377      -0.15658969      -4.74716670      -1.10117377      -0.15658969
C       -0.65065587      -0.20850510       0.70155612       0.27765206      -0.40946698       1.82271313       0.27765206      -0.40946698       1.82271313
C        0.64702322       0.09890800      -0.05254747       0.74713764       0.94473219      -2.57141787       0.74713764       0.94473219      -2.57141787
C        1.91673160       0.06454534       0.83121275       3.13331809       0.34770036       0.50766640       3.13331809       0.34770036       0.50766640
H       -2.81118859      -0.40381503       0.42023635      -0.77880388      -0.14806487      -0.45154662      -0.77880388      -0.14806487      -0.45154662
H       -2.04729477       0.81921390      -0.62600718      -1.12482689       0.85675956      -0.25158330      -1.12482689       0.85675956      -0.25158330
H       -1.83492778      -0.92229658      -1.00375657      -1.12581143      -0.43993358       0.09124024      -1.12581143      -0.43993358       0.09124024
H       -0.74705458       0.51267269       1.53227181      -1.80085251       0.16901251       0.00181699      -1.80085251       0.16901251       0.00181699
H       -0.54903079      -1.19438528       1.20159257      -1.66572079      -0.48893673      -0.18940348      -1.66572079      -0.48893673      -0.18940348
H        0.77722585      -0.63384816      -0.89256983       1.58764304       0.17039523       0.25441690       1.58764304       0.17039523       0.25441690
H        0.55258234       1.11337767      -0.55562183       1.70950716      -0.07259041       0.34609393       1.70950716      -0.07259041       0.34609393
H        1.85537040       0.79969635       1.67025250       1.27607404       0.49565866       0.12186803       1.27607404       0.49565866       0.12186803
H        2.06341170      -0.94370012       1.28032440       1.13294632      -0.58476050       0.25083665       1.13294632      -0.58476050       0.25083665
H        2.83017912       0.28925482       0.24662649       1.37890383       0.26066834       0.22388867       1.37890383       0.26066834       0.22388867
14
Properties=species:S:1:pos:R:3:forces:R:3:gap_forces:R:3 energy=-4307.07843955119 name=nbu_straight gap_energy=-4307.07843955119 config_type=start_9 pbc="F F F"
C       -1.90440447      -0.18296515      -0.16968923      -2.69060620      -0.65611003      -0.93309238      -2.69060620      -0.65611003      -0.93309238
C       -0.62347318      -0.22462732       0.69707894      -0.94744405      -0.09386336       2.44672591      -0.94744405      -0.09386336       2.44672591
C        0.67602956       0.08447343      -0.06766494      -1.05811232       1.05534358      -1.87258931      -1.05811232       1.05534358      -1.87258931
C        1.92144121       0.07389145       0.81653037       4.27254940       0.00795092       0.33359915       4.27254940       0.00795092       0.33359915
H       -2.82392758      -0.42678488       0.40910979      -0.96089405      -0.00862689      -0.21128698      -0.96089405      -0.00862689      -0.21128698
H       -2.05682690       0.81231619      -0.63642391      -0.92369590       0.57557835       0.02143999      -0.92369590       0.57557835       0.02143999
H       -1.84213724      -0.92106191      -1.01016254      -1.13767039      -0.47450833      -0.10909944      -1.13767039      -0.47450833      -0.10909944
H       -0.76931781       0.50935143       1.54530275      -1.27731282      -0.11483309      -0.25187573      -1.27731282      -0.11483309      -0.25187573
H       -0.53399454      -1.21271094       1.18824979      -1.62254416      -0.76266155       0.03991193      -1.62254416      -0.76266155       0.03991193
H        0.78218387      -0.62008943      -0.90177809       1.58187555      -0.26930555      -0.11037437       1.58187555      -0.26930555      -0.11037437
H        0.56198191       1.10498394      -0.54366397       1.65356021       0.06438319       0.22178813       1.65356021       0.06438319       0.22178813
H        1.86498226       0.79194069       1.64854491       0.59135946       0.90445758       0.45670619       0.59135946       0.90445758       0.45670619
H        2.05717742      -0.93934192       1.26178364       1.28750963      -0.41939454      -0.03167362       1.28750963      -0.41939454      -0.03167362
H        2.83570336       0.30737195       0.24724379       1.23142565       0.19158971      -0.00017948       1.23142565       0.19158971      -0.00017948
14
Properties=species:S:1:pos:R:3:forces:R:3:gap_forces:R:3 energy=-4307.099596536113 name=nbu_straight gap_energy=-4307.099596536113 config_type=start_10 pbc="F F F"
C       -1.90678955      -0.18075599      -0.18212512      -2.95607677      -0.33760322      -0.22648649      -2.95607677      -0.33760322      -0.22648649
C       -0.66405015      -0.21959922       0.70345500       2.87803726      -0.15497531       0.51978945       2.87803726      -0.15497531       0.51978945
C        0.66449243       0.10392349      -0.08024771      -0.91172189       0.04455150      -0.16095437      -0.91172189       0.04455150      -0.16095437
C        1.92971610       0.06915210       0.80124896       1.22109052      -0.64898270       0.86595053       1.22109052      -0.64898270       0.86595053
H       -2.81651177      -0.42047754       0.39241635      -1.25020008      -0.21417543      -0.02303351      -1.25020008      -0.21417543      -0.02303351
H       -2.06521688       0.81827498      -0.64023953      -0.78240868       0.52674259      -0.14423104      -0.78240868       0.52674259      -0.14423104
H       -1.82507644      -0.91549228      -1.01232873      -1.23812956      -0.70916315      -0.34529733      -1.23812956      -0.70916315      -0.34529733
H       -0.74686945       0.50512357       1.53029841      -1.97649236       0.23447879       0.35601542      -1.97649236       0.23447879       0.35601542
H       -0.55911332      -1.23088166       1.16458756      -1.55456444      -0.31892541      -0.06070037      -1.55456444      -0.31892541      -0.06070037
H        0.78129325      -0.60392878      -0.89949519       1.69187347      -0.62789144      -0.62053688       1.69187347      -0.62789144      -0.62053688
H        0.58089962       1.08440341      -0.53833393       1.22560872       1.16371218      -0.17984072       1.22560872       1.16371218      -0.17984072
H        1.84389624       0.77616017       1.64444806       1.16483164       1.05140096       0.64630936       1.16483164       1.05140096       0.64630936
H        2.07075521      -0.94576519       1.26621478       0.94097610      -0.24765055      -0.16501585       0.94097610      -0.24765055      -0.16501585
H        2.83699864       0.30837148       0.25423105       1.54717607       0.23848119      -0.46196819       1.54717607       0.23848119      -0.46196819
14
Properties=species:S:1:pos:R:3:forces:R:3:gap_forces:R:3 energy=-4307.045566684164 name=nbu_straight gap_energy=-4307.045566684164 config_type=start_11 pbc="F F F"
C       -1.91732341      -0.17412692      -0.19060147      -1.01257542      -0.76510679       1.16694661      -1.01257542      -0.76510679       1.16694661
C       -0.65372000      -0.19328514       0.71679364       1.13801043      -1.23220141       0.59214966       1.13801043      -1.23220141       0.59214966
C        0.67072010       0.09519779      -0.07075439      -2.11415068       0.78437435      -0.54651235      -2.11415068       0.78437435      -0.54651235
C        1.92407396       0.05665023       0.83153107       2.77174866       0.16291237      -0.89456268       2.77174866       0.16291237      -0.89456268
H       -2.81517121      -0.41725247       0.40954137      -1.26903424      -0.42747056      -0.28288734      -1.26903424      -0.42747056      -0.28288734
H       -2.06595047       0.80957780      -0.62071215      -1.16038175       1.47303574      -0.78071299      -1.16038175       1.47303574      -0.78071299
H       -1.82320547      -0.90674232      -1.01216588      -1.63155868      -0.87013059      -0.47383738      -1.63155868      -0.87013059      -0.47383738
H       -0.75771854       0.50814925       1.54823848      -2.04962519       0.40870924       0.54951223      -2.04962519       0.40870924       0.54951223
H       -0.55340501      -1.22428821       1.18584462      -1.96535187       0.04924338      -0.24685123      -1.96535187       0.04924338      -0.24685123
H        0.77053150      -0.61973847      -0.89219042       1.98117253      -0.43891482      -0.61292947       1.98117253      -0.43891482      -0.61292947
H        0.55919968       1.09943276      -0.55170474       1.61238895       0.42475711      -0.11178274       1.61238895       0.42475711      -0.11178274
H        1.86203931       0.76968531       1.63991175       1.06910897       1.53091175       1.36861397       1.06910897       1.53091175       1.36861397
H        2.06576836      -0.93236126       1.27813188       1.18915469      -1.14580625       0.34803723       1.18915469      -1.14580625       0.34803723
H        2.83856539       0.29772277       0.25896538       1.44109361       0.04568649      -0.07518354       1.44109361       0.04568649      -0.07518354
14
Properties=species:S:1:pos:R:3:forces:R:3:gap_forces:R:3 energy=-4307.071480059423 name=nbu_straight gap_energy=-4307.071480059423 config_type=start_12 pbc="F F F"
C       -1.91538917      -0.15986154      -0.18458389      -1.19693636      -1.41307323       0.92654228      -1.19693636      -1.41307323       0.92654228
C       -0.63914744      -0.22184608       0.71048959       0.99337422       0.02188239       1.14357177       0.99337422       0.02188239       1.14357177
C        0.67867450       0.10395849      -0.06005628      -2.23315620       0.00284428      -1.93966806      -2.23315620       0.00284428      -1.93966806
C        1.94434261       0.04583050       0.82198735       0.83508842       1.23105990      -0.61029470       0.83508842       1.23105990      -0.61029470
H       -2.83045843      -0.40520116       0.41104570      -0.93824419       0.04202934      -0.53241371      -0.93824419       0.04202934      -0.53241371
H       -2.04634417       0.82166855      -0.63296353      -1.47493906       1.29559744      -0.48998476      -1.47493906       1.29559744      -0.48998476
H       -1.82503609      -0.91242694      -0.99748555      -1.57899243      -0.74931918      -0.52473760      -1.57899243      -0.74931918      -0.52473760
H       -0.75633070       0.49293055       1.54832785      -1.52708648       0.15380789       0.37562532      -1.52708648       0.15380789       0.37562532
H       -0.55521983      -1.22541377       1.18429626      -1.65992169      -0.50233957      -0.04353110      -1.65992169      -0.50233957      -0.04353110
H        0.76537243      -0.63521664      -0.89603229       1.95632018       0.21632207       0.17261246       1.95632018       0.21632207       0.17261246