
                                 *****************
                                 * O   R   C   A *
                                 *****************

           --- An Ab Initio, DFT and Semiempirical electronic structure package ---

                  #######################################################
                  #                        -***-                        #
                  #          Department of theory and spectroscopy      #
                  #               Directorship: Frank Neese             #
                  #        Max Planck Institute fuer Kohlenforschung    #
                  #                Kaiser Wilhelm Platz 1               #
                  #                 D-45470 Muelheim/Ruhr               #
                  #                      Germany                        #
                  #                                                     #
                  #                  All rights reserved                #
                  #                        -***-                        #
                  #######################################################


                         Program Version 4.2.1 -  RELEASE  -


 With contributions from (in alphabetic order):
   Daniel Aravena         : Magnetic Suceptibility
   Michael Atanasov       : Ab Initio Ligand Field Theory (pilot matlab implementation)
   Alexander A. Auer      : GIAO ZORA, VPT2
   Ute Becker             : Parallelization
   Giovanni Bistoni       : ED, misc. LED, open-shell LED, HFLD
   Martin Brehm           : Molecular dynamics
   Dmytro Bykov           : SCF Hessian
   Vijay G. Chilkuri      : MRCI spin determinant printing, contributions to CSF-ICE
   Dipayan Datta          : RHF DLPNO-CCSD density
   Achintya Kumar Dutta   : EOM-CC, STEOM-CC
   Dmitry Ganyushin       : Spin-Orbit,Spin-Spin,Magnetic field MRCI
   Miquel Garcia          : C-PCM Hessian, Gaussian charge scheme
   Yang Guo               : DLPNO-NEVPT2, CIM, IAO-localization
   Andreas Hansen         : Spin unrestricted coupled pair/coupled cluster methods
   Benjamin Helmich-Paris : CASSCF linear response (MC-RPA)
   Lee Huntington         : MR-EOM, pCC
   Robert Izsak           : Overlap fitted RIJCOSX, COSX-SCS-MP3, EOM
   Christian Kollmar      : KDIIS, OOCD, Brueckner-CCSD(T), CCSD density
   Simone Kossmann        : Meta GGA functionals, TD-DFT gradient, OOMP2, MP2 Hessian
   Martin Krupicka        : AUTO-CI
   Lucas Lang             : DCDCAS
   Dagmar Lenk            : GEPOL surface, SMD
   Dimitrios Liakos       : Extrapolation schemes; Compound Job, initial MDCI parallelization
   Dimitrios Manganas     : Further ROCIS development; embedding schemes
   Dimitrios Pantazis     : SARC Basis sets
   Taras Petrenko         : DFT Hessian,TD-DFT gradient, ASA, ECA, R-Raman, ABS, FL, XAS/XES, NRVS
   Peter Pinski           : DLPNO-MP2, DLPNO-MP2 Gradient
   Christoph Reimann      : Effective Core Potentials
   Marius Retegan         : Local ZFS, SOC
   Christoph Riplinger    : Optimizer, TS searches, QM/MM, DLPNO-CCSD(T), (RO)-DLPNO pert. Triples
   Tobias Risthaus        : Range-separated hybrids, TD-DFT gradient, RPA, STAB
   Michael Roemelt        : Original ROCIS implementation
   Masaaki Saitow         : Open-shell DLPNO-CCSD energy and density
   Barbara Sandhoefer     : DKH picture change effects
   Avijit Sen             : IP-ROCIS
   Kantharuban Sivalingam : CASSCF convergence, NEVPT2, FIC-MRCI
   Bernardo de Souza      : ESD, SOC TD-DFT
   Georgi Stoychev        : AutoAux, RI-MP2 NMR
   Willem Van den Heuvel  : Paramagnetic NMR
   Boris Wezisla          : Elementary symmetry handling
   Frank Wennmohs         : Technical directorship


 We gratefully acknowledge several colleagues who have allowed us to
 interface, adapt or use parts of their codes:
   Stefan Grimme, W. Hujo, H. Kruse,             : VdW corrections, initial TS optimization,
                  C. Bannwarth                     DFT functionals, gCP, sTDA/sTD-DF
   Ed Valeev, F. Pavosevic, A. Kumar             : LibInt (2-el integral package), F12 methods
   Garnet Chan, S. Sharma, J. Yang, R. Olivares  : DMRG
   Ulf Ekstrom                                   : XCFun DFT Library
   Mihaly Kallay                                 : mrcc  (arbitrary order and MRCC methods)
   Andreas Klamt, Michael Diedenhofen            : otool_cosmo (COSMO solvation model)
   Jiri Pittner, Ondrej Demel                    : Mk-CCSD
   Frank Weinhold                                : gennbo (NPA and NBO analysis)
   Christopher J. Cramer and Donald G. Truhlar   : smd solvation model
   Lars Goerigk                                  : TD-DFT with DH, B97 family of functionals
   V. Asgeirsson, H. Jonsson                     : NEB implementation
   FAccTs GmbH                                   : IRC, NEB, NEB-TS, Multilevel, MM, QM/MM, CI optimization
   S Lehtola, MJT Oliveira, MAL Marques          : LibXC Library


 Your calculation uses the libint2 library for the computation of 2-el integrals
 For citations please refer to: http://libint.valeyev.net

 Your ORCA version has been built with support for libXC version: 4.2.3
 For citations please refer to: https://tddft.org/programs/libxc/

 This ORCA versions uses:
   CBLAS   interface :  Fast vector & matrix operations
   LAPACKE interface :  Fast linear algebra routines
   SCALAPACK package :  Parallel linear algebra routines


Your calculation utilizes the atom-pairwise dispersion correction
with the Becke-Johnson damping scheme (D3BJ)
Cite in your paper:
S.Grimme, S.Ehrlich, L.Goerigk, J Comput Chem, (2011), 32, 1456–1465 
S.Grimme, J.Antony, S.Ehrlich and H.Krieg, J.Chem.Phys., 132, (2010), 154104 
   

----- Orbital basis set information -----
Your calculation utilizes the basis: def2-SV(P)
   F. Weigend and R. Ahlrichs, Phys. Chem. Chem. Phys. 7, 3297 (2005).

----- AuxJ basis set information -----
Your calculation utilizes the auxiliary basis: def2/J
   F. Weigend, Phys. Chem. Chem. Phys. 8, 1057 (2006).

================================================================================
                                        WARNINGS
                       Please study these warnings very carefully!
================================================================================


WARNING: Geometry Optimization
  ===> : Switching off AutoStart
         For restart on a previous wavefunction, please use MOREAD

INFO   : the flag for use of LIBINT has been found!

================================================================================
                                       INPUT FILE
================================================================================
NAME = orca0.inp
|  1> ! UKS B3LYP def2-SV(P) def2/J D3BJ Opt
|  2> %scf Convergence VeryTight
|  3> SmearTemp 2000
|  4> maxiter 500
|  5> end
|  6> *xyz 0 1
|  7> C 3.046219 0.341643 0.183432
|  8> C 1.808793 -0.531473 0.357131
|  9> C 0.658509 0.253477 -0.201923
| 10> C -0.617187 -0.532298 -0.314275
| 11> C -1.748471 0.444904 -0.045016
| 12> C -3.104683 -0.192114 -0.1283
| 13> H 3.071917 0.61137 -0.896034
| 14> H 3.970591 -0.161638 0.491713
| 15> H 2.830419 1.2797 0.723643
| 16> H 1.955535 -1.494832 -0.151094
| 17> H 1.659878 -0.663933 1.452592
| 18> H 0.948173 0.611384 -1.218788
| 19> H 0.523924 1.141014 0.463567
| 20> H -0.656895 -1.423752 0.32705
| 21> H -0.724396 -0.881988 -1.372653
| 22> H -1.566004 0.862212 0.974909
| 23> H -1.652011 1.23799 -0.82135
| 24> H -3.120425 -1.242335 0.204646
| 25> H -3.794451 0.438835 0.488613
| 26> H -3.489434 -0.098168 -1.16877
| 27> *
| 28> 
| 29>                          ****END OF INPUT****
================================================================================

                       *****************************
                       * Geometry Optimization Run *
                       *****************************

Geometry optimization settings:
Update method            Update   .... BFGS
Choice of coordinates    CoordSys .... Z-matrix Internals
Initial Hessian          InHess   .... Almoef's Model

Convergence Tolerances:
Energy Change            TolE     ....  5.0000e-06 Eh
Max. Gradient            TolMAXG  ....  3.0000e-04 Eh/bohr
RMS Gradient             TolRMSG  ....  1.0000e-04 Eh/bohr
Max. Displacement        TolMAXD  ....  4.0000e-03 bohr
RMS Displacement         TolRMSD  ....  2.0000e-03 bohr
Strict Convergence                ....  False
------------------------------------------------------------------------------
                        ORCA OPTIMIZATION COORDINATE SETUP
------------------------------------------------------------------------------

The optimization will be done in new redundant internal coordinates
Making redundant internal coordinates   ...  (new redundants) done
Evaluating the initial hessian          ...  (Almloef) done
Evaluating the coordinates              ...  done
Calculating the B-matrix                .... done
Calculating the G-matrix                .... done
Diagonalizing the G-matrix              .... done
Small eigenvalue found = 1.530e-02
The first mode is                       ....   46
The number of degrees of freedom        ....   54

    -----------------------------------------------------------------
                    Redundant Internal Coordinates


    -----------------------------------------------------------------
         Definition                    Initial Value    Approx d2E/dq
    -----------------------------------------------------------------
      1. B(C   1,C   0)                  1.5244         0.381371   
      2. B(C   2,C   1)                  1.5006         0.416161   
      3. B(C   3,C   2)                  1.5025         0.413308   
      4. B(C   4,C   3)                  1.5190         0.389043   
      5. B(C   5,C   4)                  1.5007         0.416060   
      6. B(H   6,C   0)                  1.1130         0.330983   
      7. B(H   7,C   0)                  1.0967         0.351320   
      8. B(H   8,C   0)                  1.1038         0.342314   
      9. B(H   9,C   1)                  1.0990         0.348339   
     10. B(H  10,C   1)                  1.1134         0.330385   
     11. B(H  11,C   2)                  1.1163         0.326995   
     12. B(H  12,C   2)                  1.1175         0.325549   
     13. B(H  13,C   3)                  1.0989         0.348526   
     14. B(H  14,C   3)                  1.1198         0.322765   
     15. B(H  15,C   4)                  1.1170         0.326098   
     16. B(H  16,C   4)                  1.1140         0.329717   
     17. B(H  17,C   5)                  1.1018         0.344765   
     18. B(H  18,C   5)                  1.1200         0.322492   
     19. B(H  19,C   5)                  1.1133         0.330559   
     20. A(H   7,C   0,H   8)          114.6584         0.287427   
     21. A(C   1,C   0,H   7)          112.9122         0.324104   
     22. A(C   1,C   0,H   6)          105.5497         0.320953   
     23. A(H   6,C   0,H   7)          111.3701         0.285921   
     24. A(H   6,C   0,H   8)          105.8572         0.284767   
     25. A(C   1,C   0,H   8)          105.8009         0.322727   
     26. A(C   2,C   1,H  10)          109.0409         0.325485   
     27. A(C   0,C   1,H  10)          106.7869         0.320858   
     28. A(C   2,C   1,H   9)          112.8662         0.328334   
     29. A(C   0,C   1,H   9)          109.9367         0.323651   
     30. A(H   9,C   1,H  10)          111.6255         0.285461   
     31. A(C   0,C   1,C   2)          106.2715         0.371455   
     32. A(H  11,C   2,H  12)          108.6089         0.282024   
     33. A(C   1,C   2,C   3)          113.8993         0.376643   
     34. A(C   3,C   2,H  11)          108.6565         0.324566   
     35. A(C   1,C   2,H  11)          107.9498         0.324933   
     36. A(C   1,C   2,H  12)          106.6134         0.324696   
     37. A(C   3,C   2,H  12)          110.9560         0.324330   
     38. A(C   2,C   3,C   4)          106.4183         0.372290   
     39. A(H  13,C   3,H  14)          107.1462         0.284450   
     40. A(C   4,C   3,H  14)          107.2859         0.320678   
     41. A(C   2,C   3,H  14)          108.3778         0.323873   
     42. A(C   4,C   3,H  13)          113.0496         0.324740   
     43. A(C   2,C   3,H  13)          114.2864         0.327991   
     44. A(H  15,C   4,H  16)          110.8675         0.282460   
     45. A(C   5,C   4,H  16)          109.9855         0.325363   
     46. A(C   3,C   4,H  16)          105.6635         0.321798   
     47. A(C   5,C   4,H  15)          110.9093         0.324773   
     48. A(C   3,C   4,H  15)          106.2928         0.321218   
     49. A(C   3,C   4,C   5)          112.9640         0.372716   
     50. A(C   4,C   5,H  17)          113.6244         0.327763   
     51. A(H  18,C   5,H  19)          104.7379         0.282085   
     52. A(H  17,C   5,H  19)          110.9711         0.285026   
     53. A(C   4,C   5,H  19)          109.1700         0.325500   
     54. A(H  17,C   5,H  18)          111.2049         0.283933   
     55. A(C   4,C   5,H  18)          106.6705         0.324181   
     56. D(H   9,C   1,C   0,H   8)   -179.4761         0.011588   
     57. D(H  10,C   1,C   0,H   7)     67.9639         0.011588   
     58. D(H   9,C   1,C   0,H   7)    -53.2948         0.011588   
     59. D(H  10,C   1,C   0,H   8)    -58.2173         0.011588   
     60. D(H   9,C   1,C   0,H   6)     68.5921         0.011588   
     61. D(C   2,C   1,C   0,H   8)     58.0803         0.011588   
     62. D(C   2,C   1,C   0,H   7)   -175.7385         0.011588   
     63. D(C   2,C   1,C   0,H   6)    -53.8516         0.011588   
     64. D(H  10,C   1,C   0,H   6)   -170.1492         0.011588   
     65. D(H  11,C   2,C   1,H   9)    -70.3611         0.013709   
     66. D(C   3,C   2,C   1,H  10)    -74.2649         0.013709   
     67. D(C   3,C   2,C   1,C   0)    170.9628         0.013709   
     68. D(H  11,C   2,C   1,C   0)     50.2092         0.013709   
     69. D(H  11,C   2,C   1,H  10)    164.9816         0.013709   
     70. D(H  12,C   2,C   1,H  10)     48.4493         0.013709   
     71. D(H  12,C   2,C   1,H   9)    173.1066         0.013709   
     72. D(H  12,C   2,C   1,C   0)    -66.3231         0.013709   
     73. D(C   3,C   2,C   1,H   9)     50.3924         0.013709   
     74. D(H  14,C   3,C   2,H  11)     21.4446         0.013526   
     75. D(H  14,C   3,C   2,C   1)    -98.9130         0.013526   
     76. D(H  13,C   3,C   2,H  12)    -99.8284         0.013526   
     77. D(H  13,C   3,C   2,H  11)    140.8330         0.013526   
     78. D(H  13,C   3,C   2,C   1)     20.4754         0.013526   
     79. D(C   4,C   3,C   2,H  11)    -93.6627         0.013526   
     80. D(C   4,C   3,C   2,H  12)     25.6759         0.013526   
     81. D(H  14,C   3,C   2,H  12)    140.7831         0.013526   
     82. D(C   4,C   3,C   2,C   1)    145.9797         0.013526   
     83. D(H  15,C   4,C   3,C   2)    -58.4568         0.012036   
     84. D(C   5,C   4,C   3,H  14)     63.8501         0.012036   
     85. D(C   5,C   4,C   3,H  13)    -54.0516         0.012036   
     86. D(C   5,C   4,C   3,C   2)    179.6946         0.012036   
     87. D(H  16,C   4,C   3,H  14)    -56.4368         0.012036   
     88. D(H  16,C   4,C   3,H  13)   -174.3386         0.012036   
     89. D(H  16,C   4,C   3,C   2)     59.4076         0.012036   
     90. D(H  15,C   4,C   3,H  14)   -174.3013         0.012036   
     91. D(H  15,C   4,C   3,H  13)     67.7970         0.012036   
     92. D(H  19,C   5,C   4,H  16)     26.6037         0.013702   
     93. D(H  19,C   5,C   4,H  15)    149.6078         0.013702   
     94. D(H  19,C   5,C   4,C   3)    -91.1790         0.013702   
     95. D(H  18,C   5,C   4,H  16)    -86.0559         0.013702   
     96. D(H  18,C   5,C   4,H  15)     36.9482         0.013702   
     97. D(H  18,C   5,C   4,C   3)    156.1615         0.013702   
     98. D(H  17,C   5,C   4,H  16)    151.0497         0.013702   
     99. D(H  17,C   5,C   4,H  15)    -85.9462         0.013702   
    100. D(H  17,C   5,C   4,C   3)     33.2670         0.013702   
    -----------------------------------------------------------------

Number of atoms                         .... 20
Number of degrees of freedom            .... 100

Time needed for optimization step       :     1.32 sec

         *************************************************************
         *                GEOMETRY OPTIMIZATION CYCLE   1            *
         *************************************************************
---------------------------------
CARTESIAN COORDINATES (ANGSTROEM)
---------------------------------
  C      3.046219    0.341643    0.183432
  C      1.808793   -0.531473    0.357131
  C      0.658509    0.253477   -0.201923
  C     -0.617187   -0.532298   -0.314275
  C     -1.748471    0.444904   -0.045016
  C     -3.104683   -0.192114   -0.128300
  H      3.071917    0.611370   -0.896034
  H      3.970591   -0.161638    0.491713
  H      2.830419    1.279700    0.723643
  H      1.955535   -1.494832   -0.151094
  H      1.659878   -0.663933    1.452592
  H      0.948173    0.611384   -1.218788
  H      0.523924    1.141014    0.463567
  H     -0.656895   -1.423752    0.327050
  H     -0.724396   -0.881988   -1.372653
  H     -1.566004    0.862212    0.974909
  H     -1.652011    1.237990   -0.821350
  H     -3.120425   -1.242335    0.204646
  H     -3.794451    0.438835    0.488613
  H     -3.489434   -0.098168   -1.168770

----------------------------
CARTESIAN COORDINATES (A.U.)
----------------------------
  NO LB      ZA    FRAG     MASS         X           Y           Z
   0 C     6.0000    0    12.011    5.756520    0.645612    0.346636
   1 C     6.0000    0    12.011    3.418123   -1.004338    0.674880
   2 C     6.0000    0    12.011    1.244402    0.479002   -0.381579
   3 C     6.0000    0    12.011   -1.166314   -1.005897   -0.593894
   4 C     6.0000    0    12.011   -3.304131    0.840747   -0.085068
   5 C     6.0000    0    12.011   -5.867001   -0.363043   -0.242452
   6 H     1.0000    0     1.008    5.805082    1.155322   -1.693259
   7 H     1.0000    0     1.008    7.503330   -0.305452    0.929203
   8 H     1.0000    0     1.008    5.348717    2.418283    1.367487
   9 H     1.0000    0     1.008    3.695426   -2.824823   -0.285526
  10 H     1.0000    0     1.008    3.136715   -1.254652    2.745001
  11 H     1.0000    0     1.008    1.791787    1.155348   -2.303176
  12 H     1.0000    0     1.008    0.990073    2.156204    0.876015
  13 H     1.0000    0     1.008   -1.241352   -2.690501    0.618035
  14 H     1.0000    0     1.008   -1.368910   -1.666716   -2.593938
  15 H     1.0000    0     1.008   -2.959319    1.629345    1.842311
  16 H     1.0000    0     1.008   -3.121848    2.339462   -1.552127
  17 H     1.0000    0     1.008   -5.896749   -2.347673    0.386725
  18 H     1.0000    0     1.008   -7.170473    0.829278    0.923345
  19 H     1.0000    0     1.008   -6.594075   -0.185511   -2.208655

--------------------------------
INTERNAL COORDINATES (ANGSTROEM)
--------------------------------
 C      0   0   0     0.000000000000     0.00000000     0.00000000
 C      1   0   0     1.524377249087     0.00000000     0.00000000
 C      2   1   0     1.500613593858   106.27146228     0.00000000
 C      3   2   1     1.502486474796   113.89934147   170.96279754
 C      4   3   2     1.518956104218   106.41829394   145.97972573
 C      5   4   3     1.500679561373   112.96402146   179.69459158
 H      1   2   3     1.112950981350   105.54974802   306.14838976
 H      1   2   3     1.096718986024   112.91222163   184.26151367
 H      1   2   3     1.103788249516   105.80091999    58.08027110
 H      2   1   3     1.099038865587   109.93669505   122.44366853
 H      2   1   3     1.113443366924   106.78691172   243.70238519
 H      3   2   1     1.116251352416   107.94976596    50.20922477
 H      3   2   1     1.117457824123   106.61338346   293.67694579
 H      4   3   2     1.098892494744   114.28644537    20.47544594
 H      4   3   2     1.119795006537   108.37783765   261.08700256
 H      5   4   3     1.116999184681   106.29284549   301.54320623
 H      5   4   3     1.113994800056   105.66346399    59.40764187
 H      6   5   4     1.101846177250   113.62442026    33.26703466
 H      6   5   4     1.120025974696   106.67050570   156.16145459
 H      6   5   4     1.113300051117   109.16998702   268.82099857

---------------------------
INTERNAL COORDINATES (A.U.)
---------------------------
 C      0   0   0     0.000000000000     0.00000000     0.00000000
 C      1   0   0     2.880655525554     0.00000000     0.00000000
 C      2   1   0     2.835748725231   106.27146228     0.00000000
 C      3   2   1     2.839287957285   113.89934147   170.96279754
 C      4   3   2     2.870411046420   106.41829394   145.97972573
 C      5   4   3     2.835873385769   112.96402146   179.69459158
 H      1   2   3     2.103172555231   105.54974802   306.14838976
 H      1   2   3     2.072498529458   112.91222163   184.26151367
 H      1   2   3     2.085857501426   105.80091999    58.08027110
 H      2   1   3     2.076882466494   109.93669505   122.44366853
 H      2   1   3     2.104103029117   106.78691172   243.70238519
 H      3   2   1     2.109409352685   107.94976596    50.20922477
 H      3   2   1     2.111689253800   106.61338346   293.67694579
 H      4   3   2     2.076605865688   114.28644537    20.47544594
 H      4   3   2     2.116105888487   108.37783765   261.08700256
 H      5   4   3     2.110822550860   106.29284549   301.54320623
 H      5   4   3     2.105145086718   105.66346399    59.40764187
 H      6   5   4     2.082187516711   113.62442026    33.26703466
 H      6   5   4     2.116542355054   106.67050570   156.16145459
 H      6   5   4     2.103832201492   109.16998702   268.82099857

---------------------
BASIS SET INFORMATION
---------------------
There are 2 groups of distinct atoms

 Group   1 Type C   : 7s4p1d contracted to 3s2p1d pattern {511/31/1}
 Group   2 Type H   : 4s contracted to 2s pattern {31}

Atom   0C    basis set group =>   1
Atom   1C    basis set group =>   1
Atom   2C    basis set group =>   1
Atom   3C    basis set group =>   1
Atom   4C    basis set group =>   1
Atom   5C    basis set group =>   1
Atom   6H    basis set group =>   2
Atom   7H    basis set group =>   2
Atom   8H    basis set group =>   2
Atom   9H    basis set group =>   2
Atom  10H    basis set group =>   2
Atom  11H    basis set group =>   2
Atom  12H    basis set group =>   2
Atom  13H    basis set group =>   2
Atom  14H    basis set group =>   2
Atom  15H    basis set group =>   2
Atom  16H    basis set group =>   2
Atom  17H    basis set group =>   2
Atom  18H    basis set group =>   2
Atom  19H    basis set group =>   2
---------------------------------
AUXILIARY/J BASIS SET INFORMATION
---------------------------------
There are 2 groups of distinct atoms

 Group   1 Type C   : 12s5p4d2f1g contracted to 6s4p3d1f1g pattern {711111/2111/211/2/1}
 Group   2 Type H   : 5s2p1d contracted to 3s1p1d pattern {311/2/1}

Atom   0C    basis set group =>   1
Atom   1C    basis set group =>   1
Atom   2C    basis set group =>   1
Atom   3C    basis set group =>   1
Atom   4C    basis set group =>   1
Atom   5C    basis set group =>   1
Atom   6H    basis set group =>   2
Atom   7H    basis set group =>   2
Atom   8H    basis set group =>   2
Atom   9H    basis set group =>   2
Atom  10H    basis set group =>   2
Atom  11H    basis set group =>   2
Atom  12H    basis set group =>   2
Atom  13H    basis set group =>   2
Atom  14H    basis set group =>   2
Atom  15H    basis set group =>   2
Atom  16H    basis set group =>   2
Atom  17H    basis set group =>   2
Atom  18H    basis set group =>   2
Atom  19H    basis set group =>   2
------------------------------------------------------------------------------
                           ORCA GTO INTEGRAL CALCULATION
------------------------------------------------------------------------------

                         BASIS SET STATISTICS AND STARTUP INFO

 # of primitive gaussian shells          ...  128
 # of primitive gaussian functions       ...  200
 # of contracted shells                  ...   64
 # of contracted basis functions         ...  112
 Highest angular momentum                ...    2
 Maximum contraction depth               ...    5
 Integral package used                   ... LIBINT
 Integral threshhold            Thresh   ...  1.000e-12
 Primitive cut-off              TCut     ...  1.000e-14


------------------------------ INTEGRAL EVALUATION ----------------------------


 * One electron integrals 
 Pre-screening matrix                    ... done
 Shell pair data                         ... done (   0.001 sec)

-------------------------------------------------------------------------------
                                 ORCA SCF
-------------------------------------------------------------------------------

------------
SCF SETTINGS
------------
Hamiltonian:
 Density Functional     Method          .... DFT(GTOs)
 Exchange Functional    Exchange        .... B88
   X-Alpha parameter    XAlpha          ....  0.666667
   Becke's b parameter  XBeta           ....  0.004200
 Correlation Functional Correlation     .... LYP
 LDA part of GGA corr.  LDAOpt          .... VWN-5
 Gradients option       PostSCFGGA      .... off
 Hybrid DFT is turned on
   Fraction HF Exchange ScalHFX         ....  0.200000
   Scaling of DF-GGA-X  ScalDFX         ....  0.720000
   Scaling of DF-GGA-C  ScalDFC         ....  0.810000
   Scaling of DF-LDA-C  ScalLDAC        ....  1.000000
   Perturbative correction              ....  0.000000
   Density functional embedding theory  .... OFF
   NL short-range parameter             ....  4.800000


General Settings:
 Integral files         IntName         .... orca0
 Hartree-Fock type      HFTyp           .... UHF
 Total Charge           Charge          ....    0
 Multiplicity           Mult            ....    1
 Number of Electrons    NEL             ....   50
 Basis Dimension        Dim             ....  112
 Nuclear Repulsion      ENuc            ....    248.2877480828 Eh

Convergence Acceleration:
 DIIS                   CNVDIIS         .... on
   Start iteration      DIISMaxIt       ....    12
   Startup error        DIISStart       ....  0.200000
   # of expansion vecs  DIISMaxEq       ....     5
   Bias factor          DIISBfac        ....   1.050
   Max. coefficient     DIISMaxC        ....  10.000
 Newton-Raphson         CNVNR           .... off
 SOSCF                  CNVSOSCF        .... off
 Level Shifting         CNVShift        .... on
   Level shift para.    LevelShift      ....    0.2500
   Turn off err/grad.   ShiftErr        ....    0.0010
 Zerner damping         CNVZerner       .... off
 Static damping         CNVDamp         .... on
   Fraction old density DampFac         ....    0.7000
   Max. Damping (<1)    DampMax         ....    0.9800
   Min. Damping (>=0)   DampMin         ....    0.0000
   Turn off err/grad.   DampErr         ....    0.1000
 Fernandez-Rico         CNVRico         .... off

SCF Procedure:
 Maximum # iterations   MaxIter         ....   500
 SCF integral mode      SCFMode         .... Direct
   Integral package                     .... LIBINT
 Reset frequency        DirectResetFreq ....    20
 Integral Threshold     Thresh          ....  1.000e-12 Eh
 Primitive CutOff       TCut            ....  1.000e-14 Eh

Convergence Tolerance:
 Convergence Check Mode ConvCheckMode   .... Total+1el-Energy
 Convergence forced     ConvForced      .... 0
 Energy Change          TolE            ....  1.000e-09 Eh
 1-El. energy change                    ....  1.000e-06 Eh
 DIIS Error             TolErr          ....  1.000e-08


Diagonalization of the overlap matrix:
Smallest eigenvalue                        ... 1.172e-03
Time for diagonalization                   ...    0.001 sec
Threshold for overlap eigenvalues          ... 1.000e-08
Number of eigenvalues below threshold      ... 0
Time for construction of square roots      ...    2.438 sec
Total time needed                          ...    2.439 sec

-------------------
DFT GRID GENERATION
-------------------

General Integration Accuracy     IntAcc      ...  4.340
Radial Grid Type                 RadialGrid  ... Gauss-Chebyshev
Angular Grid (max. acc.)         AngularGrid ... Lebedev-110
Angular grid pruning method      GridPruning ... 3 (G Style)
Weight generation scheme         WeightScheme... Becke
Basis function cutoff            BFCut       ...    1.0000e-12
Integration weight cutoff        WCut        ...    1.0000e-14
Grids for H and He will be reduced by one unit

# of grid points (after initial pruning)     ...  21052 (   0.0 sec)
# of grid points (after weights+screening)   ...  19362 (   0.0 sec)
nearest neighbour list constructed           ...    0.0 sec
Grid point re-assignment to atoms done       ...    0.0 sec
Grid point division into batches done        ...    0.0 sec
Reduced shell lists constructed in    0.1 sec

Total number of grid points                  ...    19362
Total number of batches                      ...      309
Average number of points per batch           ...       62
Average number of grid points per atom       ...      968
Average number of shells per batch           ...    50.07 (78.23%)
Average number of basis functions per batch  ...    86.31 (77.07%)
Average number of large shells per batch     ...    40.97 (81.84%)
Average number of large basis fcns per batch ...    70.72 (81.94%)
Maximum spatial batch extension              ...  20.05, 21.14, 21.60 au
Average spatial batch extension              ...   3.43,  3.68,  3.66 au

Time for grid setup =    2.532 sec

------------------------------
INITIAL GUESS: MODEL POTENTIAL
------------------------------
Loading Hartree-Fock densities                     ... done
Calculating cut-offs                               ... done
Setting up the integral package                    ... done
Initializing the effective Hamiltonian             ... done
Starting the Coulomb interaction                   ... done (   0.1 sec)
Reading the grid                                   ... done
Mapping shells                                     ... done
Starting the XC term evaluation                    ... done (   0.2 sec)
  promolecular density results
     # of electrons  =     49.983340070
     EX              =    -35.010588566
     EC              =     -1.576307532
     EX+EC           =    -36.586896098
Transforming the Hamiltonian                       ... done (   0.1 sec)
Diagonalizing the Hamiltonian                      ... done (   0.0 sec)
Back transforming the eigenvectors                 ... done (   0.0 sec)
Now organizing SCF variables                       ... done
                      ------------------
                      INITIAL GUESS DONE (   2.9 sec)
                      ------------------
--------------
SCF ITERATIONS
--------------
ITER       Energy         Delta-E        Max-DP      RMS-DP      [F,P]     Damp
               ***  Starting incremental Fock matrix formation  ***
  0   -236.4265318493   0.000000000000 0.04289282  0.00184238  0.1751900 0.7000
  1   -236.5438764494  -0.117344600127 0.02649114  0.00131336  0.0912553 0.7000
                               ***Turning on DIIS***
  2   -236.5908136739  -0.046937224412 0.03691072  0.00214665  0.0341423 0.0000
  3   -236.6535291977  -0.062715523840 0.01754386  0.00089041  0.0502266 0.0000
  4   -236.6745759448  -0.021046747128 0.00360347  0.00027196  0.0116357 0.0000
  5   -236.6757153879  -0.001139443072 0.00153131  0.00009672  0.0022659 0.0000
  6   -236.6757827581  -0.000067370157 0.00073937  0.00005018  0.0008046 0.0000
  7   -236.6757885151  -0.000005757088 0.00021488  0.00000543  0.0003768 0.0000
  8   -236.6757889888  -0.000000473636 0.00003613  0.00000138  0.0000627 0.0000
  9   -236.6757890073  -0.000000018494 0.00001422  0.00000044  0.0000178 0.0000
 10   -236.6757890091  -0.000000001844 0.00000450  0.00000015  0.0000080 0.0000
 11   -236.6757890094  -0.000000000301 0.00000077  0.00000004  0.0000016 0.0000
 12   -236.6757890094  -0.000000000021 0.00000024  0.00000001  0.0000004 0.0000
 13   -236.6757890094   0.000000000014 0.00000014  0.00000000  0.0000003 0.0000
                 **** Energy Check signals convergence ****

 Fermi smearing  (ALPHA): E(HOMO(Eh)) = -0.294086 MUE = -0.119386 gap=   9.508 eV
 Fermi smearing   (BETA): E(HOMO(Eh)) = -0.294086 MUE = -0.119386 gap=   9.508 eV

N_FOD(alpha) =  0.000000
 N_FOD(beta) =  0.000000
       N_FOD =  0.000000

               *****************************************************
               *                     SUCCESS                       *
               *           SCF CONVERGED AFTER  14 CYCLES          *
               *****************************************************

Setting up the final grid:

General Integration Accuracy     IntAcc      ...  4.670
Radial Grid Type                 RadialGrid  ... Gauss-Chebyshev
Angular Grid (max. acc.)         AngularGrid ... Lebedev-302
Angular grid pruning method      GridPruning ... 3 (G Style)
Weight generation scheme         WeightScheme... Becke
Basis function cutoff            BFCut       ...    1.0000e-12
Integration weight cutoff        WCut        ...    1.0000e-14
Grids for H and He will be reduced by one unit

# of grid points (after initial pruning)     ...  84788 (   0.0 sec)
# of grid points (after weights+screening)   ...  76726 (   0.2 sec)
nearest neighbour list constructed           ...    0.0 sec
Grid point re-assignment to atoms done       ...    0.0 sec
Grid point division into batches done        ...    0.2 sec
Reduced shell lists constructed in    0.6 sec

Total number of grid points                  ...    76726
Total number of batches                      ...     1210
Average number of points per batch           ...       63
Average number of grid points per atom       ...     3836
Average number of shells per batch           ...    46.57 (72.76%)
Average number of basis functions per batch  ...    79.93 (71.37%)
Average number of large shells per batch     ...    37.74 (81.05%)
Average number of large basis fcns per batch ...    64.88 (81.17%)
Maximum spatial batch extension              ...  18.04, 19.13, 18.48 au
Average spatial batch extension              ...   2.31,  2.42,  2.42 au

Final grid set up in    2.2 sec
Final integration                            ... done (  12.0 sec)
Change in XC energy                          ...    -0.000450872
Integrated number of electrons               ...    50.000056441
Previous integrated no of electrons          ...    49.994199535

----------------
TOTAL SCF ENERGY
----------------

Total Energy       :         -236.67623988 Eh           -6440.28791 eV

Components:
Nuclear Repulsion  :          248.28774808 Eh            6756.25311 eV
Electronic Energy  :         -484.96398796 Eh          -13196.54101 eV
One Electron Energy:         -808.36994803 Eh          -21996.86458 eV
Two Electron Energy:          323.40596006 Eh            8800.32357 eV

Virial components:
Potential Energy   :         -470.94253874 Eh          -12814.99798 eV
Kinetic Energy     :          234.26629886 Eh            6374.71008 eV
Virial Ratio       :            2.01028719


DFT components:
N(Alpha)           :       25.000028220295 electrons
N(Beta)            :       25.000028220295 electrons
N(Total)           :       50.000056440589 electrons
E(X)               :      -28.518875623271 Eh       
E(C)               :       -1.871219941224 Eh       
E(XC)              :      -30.390095564494 Eh       
DFET-embed. en.    :        0.000000000000 Eh       

---------------
SCF CONVERGENCE
---------------

  Last Energy change         ...   -4.1211e-12  Tolerance :   1.0000e-09
  Last MAX-Density change    ...    2.6065e-08  Tolerance :   1.0000e-08
  Last RMS-Density change    ...    9.1042e-10  Tolerance :   1.0000e-09
  Last DIIS Error            ...    5.0354e-08  Tolerance :   1.0000e-08

             **** THE GBW FILE WAS UPDATED (orca0.gbw) ****
             **** DENSITY FILE WAS UPDATED (orca0.scfp) ****
             **** ENERGY FILE WAS UPDATED (orca0.en.tmp) ****
             **** THE GBW FILE WAS UPDATED (orca0.gbw) ****
             **** DENSITY FILE WAS UPDATED (orca0.scfp) ****
----------------
ORBITAL ENERGIES
----------------
                 SPIN UP ORBITALS
  NO   OCC          E(Eh)            E(eV) 
   0   1.0000     -10.168750      -276.7058 
   1   1.0000     -10.166043      -276.6321 
   2   1.0000     -10.164505      -276.5902 
   3   1.0000     -10.163605      -276.5658 
   4   1.0000     -10.163355      -276.5589 
   5   1.0000     -10.161393      -276.5056 
   6   1.0000      -0.805468       -21.9179 
   7   1.0000      -0.762485       -20.7483 
   8   1.0000      -0.696671       -18.9574 
   9   1.0000      -0.618812       -16.8387 
  10   1.0000      -0.564600       -15.3636 
  11   1.0000      -0.563785       -15.3414 
  12   1.0000      -0.480254       -13.0684 
  13   1.0000      -0.451695       -12.2913 
  14   1.0000      -0.439646       -11.9634 
  15   1.0000      -0.419824       -11.4240 
  16   1.0000      -0.396824       -10.7981 
  17   1.0000      -0.378384       -10.2963 
  18   1.0000      -0.368071       -10.0157 
  19   1.0000      -0.345897        -9.4123 
  20   1.0000      -0.338240        -9.2040 
  21   1.0000      -0.330485        -8.9930 
  22   1.0000      -0.324715        -8.8359 
  23   1.0000      -0.311686        -8.4814 
  24   1.0000      -0.294086        -8.0025 
  25   0.0000       0.055314         1.5052 
  26   0.0000       0.066995         1.8230 
  27   0.0000       0.080486         2.1901 
  28   0.0000       0.087830         2.3900 
  29   0.0000       0.103327         2.8117 
  30   0.0000       0.111985         3.0473 
  31   0.0000       0.122711         3.3391 
  32   0.0000       0.141191         3.8420 
  33   0.0000       0.146440         3.9848 
  34   0.0000       0.157450         4.2844 
  35   0.0000       0.166818         4.5393 
  36   0.0000       0.174509         4.7486 
  37   0.0000       0.181239         4.9318 
  38   0.0000       0.189763         5.1637 
  39   0.0000       0.229358         6.2411 
  40   0.0000       0.248211         6.7542 
  41   0.0000       0.270600         7.3634 
  42   0.0000       0.274468         7.4687 
  43   0.0000       0.276682         7.5289 
  44   0.0000       0.421645        11.4735 
  45   0.0000       0.439632        11.9630 
  46   0.0000       0.442867        12.0510 
  47   0.0000       0.447515        12.1775 
  48   0.0000       0.452035        12.3005 
  49   0.0000       0.458567        12.4782 
  50   0.0000       0.498341        13.5605 
  51   0.0000       0.554846        15.0981 
  52   0.0000       0.561277        15.2731 
  53   0.0000       0.584245        15.8981 
  54   0.0000       0.640271        17.4226 
  55   0.0000       0.653612        17.7857 
  56   0.0000       0.657559        17.8931 
  57   0.0000       0.667984        18.1768 
  58   0.0000       0.674129        18.3440 
  59   0.0000       0.690164        18.7803 
  60   0.0000       0.694920        18.9097 
  61   0.0000       0.700193        19.0532 
  62   0.0000       0.704362        19.1667 
  63   0.0000       0.711430        19.3590 
  64   0.0000       0.713653        19.4195 
  65   0.0000       0.716490        19.4967 
  66   0.0000       0.726041        19.7566 
  67   0.0000       0.727469        19.7955 
  68   0.0000       0.730215        19.8702 
  69   0.0000       0.732733        19.9387 
  70   0.0000       0.735109        20.0033 
  71   0.0000       0.747015        20.3273 
  72   0.0000       0.760353        20.6902 
  73   0.0000       0.767385        20.8816 
  74   0.0000       0.792601        21.5678 
  75   0.0000       0.857176        23.3249 
  76   0.0000       0.964634        26.2490 
  77   0.0000       0.992140        26.9975 
  78   0.0000       1.008200        27.4345 
  79   0.0000       1.062564        28.9138 
  80   0.0000       1.121099        30.5067 
  81   0.0000       1.184860        32.2417 
  82   0.0000       1.389732        37.8165 
  83   0.0000       1.430698        38.9313 
  84   0.0000       1.549610        42.1670 
  85   0.0000       1.646245        44.7966 
  86   0.0000       1.720538        46.8182 
  87   0.0000       1.821013        49.5523 
  88   0.0000       1.856180        50.5092 
  89   0.0000       1.869643        50.8756 
  90   0.0000       1.896501        51.6064 
  91   0.0000       1.929455        52.5031 
  92   0.0000       1.937378        52.7187 
  93   0.0000       1.972400        53.6717 
  94   0.0000       1.990367        54.1606 
  95   0.0000       2.032856        55.3168 
  96   0.0000       2.049960        55.7822 
  97   0.0000       2.094625        56.9976 
  98   0.0000       2.138034        58.1789 
  99   0.0000       2.145272        58.3758 
 100   0.0000       2.199107        59.8407 
 101   0.0000       2.235662        60.8355 
 102   0.0000       2.283608        62.1401 
 103   0.0000       2.289813        62.3090 
 104   0.0000       2.319236        63.1096 
 105   0.0000       2.366145        64.3861 
 106   0.0000       2.465968        67.1024 
 107   0.0000       2.517268        68.4984 
 108   0.0000       2.550134        69.3927 
 109   0.0000       2.617195        71.2175 
 110   0.0000       2.774695        75.5033 
 111   0.0000       2.828230        76.9601 

                 SPIN DOWN ORBITALS
  NO   OCC          E(Eh)            E(eV) 
   0   1.0000     -10.168750      -276.7058 
   1   1.0000     -10.166043      -276.6321 
   2   1.0000     -10.164505      -276.5902 
   3   1.0000     -10.163605      -276.5658 
   4   1.0000     -10.163355      -276.5589 
   5   1.0000     -10.161393      -276.5056 
   6   1.0000      -0.805468       -21.9179 
   7   1.0000      -0.762485       -20.7483 
   8   1.0000      -0.696671       -18.9574 
   9   1.0000      -0.618812       -16.8387 
  10   1.0000      -0.564600       -15.3636 
  11   1.0000      -0.563785       -15.3414 
  12   1.0000      -0.480254       -13.0684 
  13   1.0000      -0.451695       -12.2913 
  14   1.0000      -0.439646       -11.9634 
  15   1.0000      -0.419824       -11.4240 
  16   1.0000      -0.396824       -10.7981 
  17   1.0000      -0.378384       -10.2963 
  18   1.0000      -0.368071       -10.0157 
  19   1.0000      -0.345897        -9.4123 
  20   1.0000      -0.338240        -9.2040 
  21   1.0000      -0.330485        -8.9930 
  22   1.0000      -0.324715        -8.8359 
  23   1.0000      -0.311686        -8.4814 
  24   1.0000      -0.294086        -8.0025 
  25   0.0000       0.055314         1.5052 
  26   0.0000       0.066995         1.8230 
  27   0.0000       0.080486         2.1901 
  28   0.0000       0.087830         2.3900 
  29   0.0000       0.103327         2.8117 
  30   0.0000       0.111985         3.0473 
  31   0.0000       0.122711         3.3391 
  32   0.0000       0.141191         3.8420 
  33   0.0000       0.146440         3.9848 
  34   0.0000       0.157450         4.2844 
  35   0.0000       0.166818         4.5393 
  36   0.0000       0.174509         4.7486 
  37   0.0000       0.181239         4.9318 
  38   0.0000       0.189763         5.1637 
  39   0.0000       0.229358         6.2411 
  40   0.0000       0.248211         6.7542 
  41   0.0000       0.270600         7.3634 
  42   0.0000       0.274468         7.4687 
  43   0.0000       0.276682         7.5289 
  44   0.0000       0.421645        11.4735 
  45   0.0000       0.439632        11.9630 
  46   0.0000       0.442867        12.0510 
  47   0.0000       0.447515        12.1775 
  48   0.0000       0.452035        12.3005 
  49   0.0000       0.458567        12.4782 
  50   0.0000       0.498341        13.5605 
  51   0.0000       0.554846        15.0981 
  52   0.0000       0.561277        15.2731 
  53   0.0000       0.584245        15.8981 
  54   0.0000       0.640271        17.4226 
  55   0.0000       0.653612        17.7857 
  56   0.0000       0.657559        17.8931 
  57   0.0000       0.667984        18.1768 
  58   0.0000       0.674129        18.3440 
  59   0.0000       0.690164        18.7803 
  60   0.0000       0.694920        18.9097 
  61   0.0000       0.700193        19.0532 
  62   0.0000       0.704362        19.1667 
  63   0.0000       0.711430        19.3590 
  64   0.0000       0.713653        19.4195 
  65   0.0000       0.716490        19.4967 
  66   0.0000       0.726041        19.7566 
  67   0.0000       0.727469        19.7955 
  68   0.0000       0.730215        19.8702 
  69   0.0000       0.732733        19.9387 
  70   0.0000       0.735109        20.0033 
  71   0.0000       0.747015        20.3273 
  72   0.0000       0.760353        20.6902 
  73   0.0000       0.767385        20.8816 
  74   0.0000       0.792601        21.5678 
  75   0.0000       0.857176        23.3249 
  76   0.0000       0.964634        26.2490 
  77   0.0000       0.992140        26.9975 
  78   0.0000       1.008200        27.4345 
  79   0.0000       1.062564        28.9138 
  80   0.0000       1.121099        30.5067 
  81   0.0000       1.184860        32.2417 
  82   0.0000       1.389732        37.8165 
  83   0.0000       1.430698        38.9313 
  84   0.0000       1.549610        42.1670 
  85   0.0000       1.646245        44.7966 
  86   0.0000       1.720538        46.8182 
  87   0.0000       1.821013        49.5523 
  88   0.0000       1.856180        50.5092 
  89   0.0000       1.869643        50.8756 
  90   0.0000       1.896501        51.6064 
  91   0.0000       1.929455        52.5031 
  92   0.0000       1.937378        52.7187 
  93   0.0000       1.972400        53.6717 
  94   0.0000       1.990367        54.1606 
  95   0.0000       2.032856        55.3168 
  96   0.0000       2.049960        55.7822 
  97   0.0000       2.094625        56.9976 
  98   0.0000       2.138034        58.1789 
  99   0.0000       2.145272        58.3758 
 100   0.0000       2.199107        59.8407 
 101   0.0000       2.235662        60.8355 
 102   0.0000       2.283608        62.1401 
 103   0.0000       2.289813        62.3090 
 104   0.0000       2.319236        63.1096 
 105   0.0000       2.366145        64.3861 
 106   0.0000       2.465968        67.1024 
 107   0.0000       2.517268        68.4984 
 108   0.0000       2.550134        69.3927 
 109   0.0000       2.617195        71.2175 
 110   0.0000       2.774695        75.5033 
 111   0.0000       2.828230        76.9601 

                    ********************************
                    * MULLIKEN POPULATION ANALYSIS *
                    ********************************

------------------------------------------
FOD BASED MULLIKEN REDUCED ORBITAL CHARGES
------------------------------------------
  0 C s       :    -0.000000  s :    -0.000000
      pz      :     0.000000  p :     0.000000
      px      :     0.000000
      py      :     0.000000
      dz2     :     0.000000  d :     0.000000
      dxz     :     0.000000
      dyz     :     0.000000
      dx2y2   :     0.000000
      dxy     :     0.000000
  1 C s       :    -0.000000  s :    -0.000000
      pz      :     0.000000  p :     0.000000
      px      :     0.000000
      py      :     0.000000
      dz2     :     0.000000  d :     0.000000
      dxz     :     0.000000
      dyz     :     0.000000
      dx2y2   :     0.000000
      dxy     :     0.000000
  2 C s       :    -0.000000  s :    -0.000000
      pz      :     0.000000  p :     0.000000
      px      :     0.000000
      py      :     0.000000
      dz2     :     0.000000  d :     0.000000
      dxz     :     0.000000
      dyz     :     0.000000
      dx2y2   :     0.000000
      dxy     :     0.000000
  3 C s       :    -0.000000  s :    -0.000000
      pz      :     0.000000  p :     0.000000
      px      :     0.000000
      py      :     0.000000
      dz2     :     0.000000  d :     0.000000
      dxz     :     0.000000
      dyz     :     0.000000
      dx2y2   :     0.000000
      dxy     :     0.000000
  4 C s       :    -0.000000  s :    -0.000000
      pz      :     0.000000  p :     0.000000
      px      :     0.000000
      py      :     0.000000
      dz2     :     0.000000  d :     0.000000
      dxz     :     0.000000
      dyz     :     0.000000
      dx2y2   :     0.000000
      dxy     :     0.000000
  5 C s       :    -0.000000  s :    -0.000000
      pz      :     0.000000  p :     0.000000
      px      :     0.000000
      py      :     0.000000
      dz2     :     0.000000  d :     0.000000
      dxz     :     0.000000
      dyz     :     0.000000
      dx2y2   :     0.000000
      dxy     :     0.000000
  6 H s       :     0.000000  s :     0.000000
  7 H s       :     0.000000  s :     0.000000
  8 H s       :     0.000000  s :     0.000000
  9 H s       :     0.000000  s :     0.000000
 10 H s       :     0.000000  s :     0.000000
 11 H s       :     0.000000  s :     0.000000
 12 H s       :     0.000000  s :     0.000000
 13 H s       :     0.000000  s :     0.000000
 14 H s       :     0.000000  s :     0.000000
 15 H s       :     0.000000  s :     0.000000
 16 H s       :     0.000000  s :     0.000000
 17 H s       :     0.000000  s :     0.000000
 18 H s       :     0.000000  s :     0.000000
 19 H s       :     0.000000  s :     0.000000


                     *******************************
                     * LOEWDIN POPULATION ANALYSIS *
                     *******************************

-------------------------------------------
LOEWDIN ATOMIC CHARGES AND SPIN POPULATIONS
-------------------------------------------
   0 C :   -0.315667    0.000000
   1 C :   -0.221414    0.000000
   2 C :   -0.209941    0.000000
   3 C :   -0.213348    0.000000
   4 C :   -0.218817    0.000000
   5 C :   -0.318966    0.000000
   6 H :    0.105516    0.000000
   7 H :    0.108519    0.000000
   8 H :    0.109209    0.000000
   9 H :    0.105716    0.000000
  10 H :    0.106796    0.000000
  11 H :    0.104966    0.000000
  12 H :    0.104757    0.000000
  13 H :    0.104250    0.000000
  14 H :    0.105046    0.000000
  15 H :    0.102109    0.000000
  16 H :    0.110134    0.000000
  17 H :    0.110636    0.000000
  18 H :    0.110344    0.000000
  19 H :    0.110157    0.000000

----------------------------------------------------
LOEWDIN REDUCED ORBITAL CHARGES AND SPIN POPULATIONS
----------------------------------------------------
CHARGE
  0 C s       :     2.954344  s :     2.954344
      pz      :     1.109753  p :     3.286239
      px      :     1.079464
      py      :     1.097023
      dz2     :     0.019627  d :     0.075084
      dxz     :     0.006658
      dyz     :     0.014007
      dx2y2   :     0.016496
      dxy     :     0.018296
  1 C s       :     2.906358  s :     2.906358
      pz      :     1.082294  p :     3.220042
      px      :     1.055381
      py      :     1.082367
      dz2     :     0.024674  d :     0.095014
      dxz     :     0.011826
      dyz     :     0.015012
      dx2y2   :     0.020427
      dxy     :     0.023076
  2 C s       :     2.905237  s :     2.905237
      pz      :     1.080875  p :     3.208086
      px      :     1.050374
      py      :     1.076837
      dz2     :     0.017551  d :     0.096618
      dxz     :     0.013380
      dyz     :     0.022467
      dx2y2   :     0.020161
      dxy     :     0.023059
  3 C s       :     2.906376  s :     2.906376
      pz      :     1.087162  p :     3.213512
      px      :     1.050553
      py      :     1.075797
      dz2     :     0.019144  d :     0.093460
      dxz     :     0.008140
      dyz     :     0.022670
      dx2y2   :     0.019121
      dxy     :     0.024384
  4 C s       :     2.907916  s :     2.907916
      pz      :     1.080710  p :     3.214589
      px      :     1.053598
      py      :     1.080281
      dz2     :     0.018848  d :     0.096313
      dxz     :     0.010423
      dyz     :     0.023765
      dx2y2   :     0.019546
      dxy     :     0.023730
  5 C s       :     2.949170  s :     2.949170
      pz      :     1.110898  p :     3.294681
      px      :     1.083080
      py      :     1.100703
      dz2     :     0.015723  d :     0.075115
      dxz     :     0.015582
      dyz     :     0.009097
      dx2y2   :     0.018949
      dxy     :     0.015764
  6 H s       :     0.894484  s :     0.894484
  7 H s       :     0.891481  s :     0.891481
  8 H s       :     0.890791  s :     0.890791
  9 H s       :     0.894284  s :     0.894284
 10 H s       :     0.893204  s :     0.893204
 11 H s       :     0.895034  s :     0.895034
 12 H s       :     0.895243  s :     0.895243
 13 H s       :     0.895750  s :     0.895750
 14 H s       :     0.894954  s :     0.894954
 15 H s       :     0.897891  s :     0.897891
 16 H s       :     0.889866  s :     0.889866
 17 H s       :     0.889364  s :     0.889364
 18 H s       :     0.889656  s :     0.889656
 19 H s       :     0.889843  s :     0.889843

SPIN
  0 C s       :     0.000000  s :     0.000000
      pz      :     0.000000  p :     0.000000
      px      :     0.000000
      py      :     0.000000
      dz2     :     0.000000  d :     0.000000
      dxz     :     0.000000
      dyz     :     0.000000
      dx2y2   :     0.000000
      dxy     :     0.000000
  1 C s       :     0.000000  s :     0.000000
      pz      :     0.000000  p :     0.000000
      px      :     0.000000
      py      :     0.000000
      dz2     :     0.000000  d :     0.000000
      dxz     :     0.000000
      dyz     :     0.000000
      dx2y2   :     0.000000
      dxy     :     0.000000
  2 C s       :     0.000000  s :     0.000000
      pz      :     0.000000  p :     0.000000
      px      :     0.000000
      py      :     0.000000
      dz2     :     0.000000  d :     0.000000
      dxz     :     0.000000
      dyz     :     0.000000
      dx2y2   :     0.000000
      dxy     :     0.000000
  3 C s       :     0.000000  s :     0.000000
      pz      :     0.000000  p :     0.000000
      px      :     0.000000
      py      :     0.000000
      dz2     :     0.000000  d :     0.000000
      dxz     :     0.000000
      dyz     :     0.000000
      dx2y2   :     0.000000
      dxy     :     0.000000
  4 C s       :     0.000000  s :     0.000000
      pz      :     0.000000  p :     0.000000
      px      :     0.000000
      py      :     0.000000
      dz2     :     0.000000  d :     0.000000
      dxz     :     0.000000
      dyz     :     0.000000
      dx2y2   :     0.000000
      dxy     :     0.000000
  5 C s       :     0.000000  s :     0.000000
      pz      :     0.000000  p :     0.000000
      px      :     0.000000
      py      :     0.000000
      dz2     :     0.000000  d :     0.000000
      dxz     :     0.000000
      dyz     :     0.000000
      dx2y2   :     0.000000
      dxy     :     0.000000
  6 H s       :     0.000000  s :     0.000000
  7 H s       :     0.000000  s :     0.000000
  8 H s       :     0.000000  s :     0.000000
  9 H s       :     0.000000  s :     0.000000
 10 H s       :     0.000000  s :     0.000000
 11 H s       :     0.000000  s :     0.000000
 12 H s       :     0.000000  s :     0.000000
 13 H s       :     0.000000  s :     0.000000
 14 H s       :     0.000000  s :     0.000000
 15 H s       :     0.000000  s :     0.000000
 16 H s       :     0.000000  s :     0.000000
 17 H s       :     0.000000  s :     0.000000
 18 H s       :     0.000000  s :     0.000000
 19 H s       :     0.000000  s :     0.000000


                      *****************************
                      * MAYER POPULATION ANALYSIS *
                      *****************************

  NA   - Mulliken gross atomic population
  ZA   - Total nuclear charge
  QA   - Mulliken gross atomic charge
  VA   - Mayer's total valence
  BVA  - Mayer's bonded valence
  FA   - Mayer's free valence

  ATOM       NA         ZA         QA         VA         BVA        FA
  0 C      6.2220     6.0000    -0.2220     4.0136     4.0136     0.0000
  1 C      6.1525     6.0000    -0.1525     4.1184     4.1184     0.0000
  2 C      6.1787     6.0000    -0.1787     4.1244     4.1244     0.0000
  3 C      6.1052     6.0000    -0.1052     4.0632     4.0632     0.0000
  4 C      6.2040     6.0000    -0.2040     4.1773     4.1773     0.0000
  5 C      6.2127     6.0000    -0.2127     3.9890     3.9890     0.0000
  6 H      0.9224     1.0000     0.0776     0.9633     0.9633     0.0000
  7 H      0.9086     1.0000     0.0914     0.9506     0.9506     0.0000
  8 H      0.9220     1.0000     0.0780     0.9621     0.9621     0.0000
  9 H      0.9288     1.0000     0.0712     0.9487     0.9487     0.0000
 10 H      0.9254     1.0000     0.0746     0.9453     0.9453     0.0000
 11 H      0.9349     1.0000     0.0651     0.9573     0.9573     0.0000
 12 H      0.9281     1.0000     0.0719     0.9665     0.9665     0.0000
 13 H      0.9310     1.0000     0.0690     0.9637     0.9637     0.0000
 14 H      0.9387     1.0000     0.0613     0.9483     0.9483     0.0000
 15 H      0.9250     1.0000     0.0750     0.9496     0.9496     0.0000
 16 H      0.9201     1.0000     0.0799     0.9445     0.9445     0.0000
 17 H      0.9089     1.0000     0.0911     0.9634     0.9634     0.0000
 18 H      0.9155     1.0000     0.0845     0.9528     0.9528     0.0000
 19 H      0.9157     1.0000     0.0843     0.9557     0.9557     0.0000

  Mayer bond orders larger than 0.100000
B(  0-C ,  1-C ) :   1.1355 B(  0-C ,  6-H ) :   0.9608 B(  0-C ,  7-H ) :   0.9555 
B(  0-C ,  8-H ) :   0.9555 B(  1-C ,  2-C ) :   1.1300 B(  1-C ,  9-H ) :   0.9297 
B(  1-C , 10-H ) :   0.9298 B(  2-C ,  3-C ) :   1.1029 B(  2-C , 11-H ) :   0.9251 
B(  2-C , 12-H ) :   0.9319 B(  3-C ,  4-C ) :   1.1300 B(  3-C , 13-H ) :   0.9335 
B(  3-C , 14-H ) :   0.9229 B(  4-C ,  5-C ) :   1.1347 B(  4-C , 15-H ) :   0.9399 
B(  4-C , 16-H ) :   0.9329 B(  5-C , 17-H ) :   0.9571 B(  5-C , 18-H ) :   0.9590 
B(  5-C , 19-H ) :   0.9587 

-------
TIMINGS
-------

Total SCF time: 0 days 0 hours 6 min 31 sec 

Total time                  ....     391.102 sec
Sum of individual times     ....     313.172 sec  ( 80.1%)

Fock matrix formation       ....     267.474 sec  ( 68.4%)
  XC integration            ....     135.224 sec  ( 50.6% of F)
    Basis function eval.    ....       1.546 sec  (  1.1% of XC)
    Density eval.           ....       1.231 sec  (  0.9% of XC)
    XC-Functional eval.     ....       0.361 sec  (  0.3% of XC)
    XC-Potential eval.      ....       1.695 sec  (  1.3% of XC)
Diagonalization             ....       0.101 sec  (  0.0%)
Density matrix formation    ....      23.741 sec  (  6.1%)
Population analysis         ....       6.887 sec  (  1.8%)
Initial guess               ....       0.370 sec  (  0.1%)
Orbital Transformation      ....       0.000 sec  (  0.0%)
Orbital Orthonormalization  ....       0.000 sec  (  0.0%)
DIIS solution               ....       9.873 sec  (  2.5%)
Grid generation             ....       4.726 sec  (  1.2%)


-------------------------------------------------------------------------------
                          DFT DISPERSION CORRECTION                            
                                                                               
                              DFTD3 V3.1  Rev 1                                
                          USING Becke-Johnson damping                          
-------------------------------------------------------------------------------
The B3LYP functional is recognized
Active option DFTDOPT                   ...         4   

molecular C6(AA) [au] = 2517.513848 


            DFT-D V3
 parameters
 s6 scaling factor         :     1.0000 
 a1 scaling factor         :     0.3981 
 s8 scaling factor         :     1.9889 
 a2 scaling factor         :     4.4211 
 ad hoc parameters k1-k3   :    16.0000     1.3333    -4.0000 

 Edisp/kcal,au: -15.506453374593  -0.024711103755 
 E6   /kcal   :  -7.802387280 
 E8   /kcal   :  -7.704066095 
 % E8         :  49.682966883 

-------------------------   ----------------
Dispersion correction           -0.024711104
-------------------------   ----------------


-------------------------   --------------------
FINAL SINGLE POINT ENERGY      -236.700950984920
-------------------------   --------------------

------------------------------------------------------------------------------
                         ORCA SCF GRADIENT CALCULATION
------------------------------------------------------------------------------

Gradient of the Kohn-Sham DFT energy:
Kohn-Sham wavefunction type      ... UKS
Hartree-Fock exchange scaling    ...    0.200
Number of operators              ...    2
Number of atoms                  ...   20
Basis set dimensions             ...  112
Integral neglect threshold       ... 1.0e-12
Integral primitive cutoff        ... 1.0e-14

Nuclear repulsion gradient       ... done
One Electron Gradient            ... done
Pre-screening matrix             ... done
Starting the two electron gradient:
Two electron gradient done
Exchange-correlation gradient    ... done
Dispersion correction            ... done

------------------
CARTESIAN GRADIENT
------------------

   1   C   :    0.009725149   -0.000034309    0.011936359
   2   C   :   -0.018341325   -0.009764129   -0.011521286
   3   C   :   -0.008799939    0.001833009    0.004117610
   4   C   :    0.011262082   -0.008859738    0.021881774
   5   C   :   -0.008237343    0.008297569   -0.003770250
   6   C   :    0.025465987   -0.022051900    0.003031013
   7   H   :   -0.010876271    0.000565223   -0.004623615
   8   H   :   -0.005710312   -0.004342150   -0.002957694
   9   H   :   -0.011929661   -0.001523918   -0.003260628
  10   H   :    0.003331403    0.005423228   -0.001286106
  11   H   :    0.002359486    0.010253599    0.005394381
  12   H   :    0.003205527   -0.003635198   -0.007175293
  13   H   :    0.000336709    0.003235371    0.007852937
  14   H   :   -0.000059762    0.000504752   -0.005879208
  15   H   :   -0.000630207    0.004413598   -0.008788073
  16   H   :    0.003492252   -0.002975000    0.007776785
  17   H   :    0.001934357   -0.003200387   -0.010964873
  18   H   :    0.001978247   -0.000021393   -0.001280155
  19   H   :    0.001410804    0.012450831    0.003388768
  20   H   :    0.000082817    0.009430942   -0.003872445

Difference to translation invariance:
           :   -0.0000000000   -0.0000000000    0.0000000000

Norm of the cartesian gradient     ...    0.0647199182
RMS gradient                       ...    0.0083553055
MAX gradient                       ...    0.0254659869

-------
TIMINGS
-------

Total SCF gradient time            ...       10.365 sec

One electron gradient       ....       0.070 sec  (  0.7%)
Prescreening matrices       ....       0.040 sec  (  0.4%)
Two electron gradient       ....       4.295 sec  ( 41.4%)
XC gradient                 ....       5.712 sec  ( 55.1%)
------------------------------------------------------------------------------
                         ORCA GEOMETRY RELAXATION STEP
------------------------------------------------------------------------------

Reading the OPT-File                    .... done
Getting information on internals        .... done
Copying old internal coords+grads       .... done
Making the new internal coordinates     .... (new redundants).... done
Validating the new internal coordinates .... (new redundants).... done
Calculating the B-matrix                .... done
Calculating the G,G- and P matrices     .... done
Transforming gradient to internals      .... done
Projecting the internal gradient        .... done
Number of atoms                         ....  20
Number of internal coordinates          .... 100
Current Energy                          ....  -236.700950985 Eh
Current gradient norm                   ....     0.064719918 Eh/bohr
Maximum allowed component of the step   ....  0.300
Current trust radius                    ....  0.300
Evaluating the initial hessian          ....  (Almloef) done
Projecting the Hessian                  .... done
Forming the augmented Hessian           .... done
Diagonalizing the augmented Hessian     .... done
Last element of RFO vector              ....  0.947308801
Lowest eigenvalues of augmented Hessian:
 -0.023456343  0.011624574  0.012107464  0.013586179  0.013706531
Length of the computed step             ....  0.338138703
Warning: the length of the step is outside the trust region - taking restricted step instead
The input lambda is                     ....    -0.023456
   iter:   1  x=   -0.034220  g=    2.261128 f(x)=     0.024338
   iter:   2  x=   -0.038038  g=    1.395412 f(x)=     0.005327
   iter:   3  x=   -0.038323  g=    1.220179 f(x)=     0.000348
   iter:   4  x=   -0.038324  g=    1.208693 f(x)=     0.000002
   iter:   5  x=   -0.038324  g=    1.208639 f(x)=     0.000000
   iter:   6  x=   -0.038324  g=    1.208639 f(x)=     0.000000
The output lambda is                    ....    -0.038324 (6 iterations)
The final length of the internal step   ....  0.300000000
Converting the step to cartesian space:
 Initial RMS(Int)=    0.0300000000
Transforming coordinates:
 Iter   0:  RMS(Cart)=    0.1447791653 RMS(Int)=    0.0302469451
 Iter   1:  RMS(Cart)=    0.0051564592 RMS(Int)=    0.0027206420
 Iter   2:  RMS(Cart)=    0.0004463485 RMS(Int)=    0.0001364377
 Iter   3:  RMS(Cart)=    0.0000410818 RMS(Int)=    0.0000298154
 Iter   4:  RMS(Cart)=    0.0000044438 RMS(Int)=    0.0000019936
 Iter   5:  RMS(Cart)=    0.0000004784 RMS(Int)=    0.0000003910
 Iter   6:  RMS(Cart)=    0.0000000538 RMS(Int)=    0.0000000304
done
Storing new coordinates                 .... done

                                .--------------------.
          ----------------------|Geometry convergence|-------------------------
          Item                value                   Tolerance       Converged
          ---------------------------------------------------------------------
          RMS gradient        0.0085223800            0.0001000000      NO
          MAX gradient        0.0312274453            0.0003000000      NO
          RMS step            0.0300000000            0.0020000000      NO
          MAX step            0.0891807056            0.0040000000      NO
          ........................................................
          Max(Bonds)      0.0354      Max(Angles)    5.11
          Max(Dihed)        3.80      Max(Improp)    0.00
          ---------------------------------------------------------------------

The optimization has not yet converged - more geometry cycles are needed


    ---------------------------------------------------------------------------
                         Redundant Internal Coordinates
                            (Angstroem and degrees)

        Definition                    Value    dE/dq     Step     New-Value
    ----------------------------------------------------------------------------
     1. B(C   1,C   0)                1.5244 -0.018440  0.0233    1.5476   
     2. B(C   2,C   1)                1.5006 -0.026742  0.0311    1.5318   
     3. B(C   3,C   2)                1.5025 -0.030219  0.0354    1.5379   
     4. B(C   4,C   3)                1.5190 -0.019241  0.0238    1.5428   
     5. B(C   5,C   4)                1.5007 -0.026138  0.0304    1.5311   
     6. B(H   6,C   0)                1.1130  0.004360 -0.0062    1.1067   
     7. B(H   7,C   0)                1.0967 -0.003650  0.0050    1.1017   
     8. B(H   8,C   0)                1.1038 -0.000552  0.0008    1.1046   
     9. B(H   9,C   1)                1.0990 -0.003716  0.0051    1.1041   
    10. B(H  10,C   1)                1.1134  0.003776 -0.0054    1.1080   
    11. B(H  11,C   2)                1.1163  0.006200 -0.0090    1.1073   
    12. B(H  12,C   2)                1.1175  0.007208 -0.0105    1.1070   
    13. B(H  13,C   3)                1.0989 -0.003841  0.0053    1.1041   
    14. B(H  14,C   3)                1.1198  0.006991 -0.0102    1.1095   
    15. B(H  15,C   4)                1.1170  0.006556 -0.0095    1.1075   
    16. B(H  16,C   4)                1.1140  0.005533 -0.0080    1.1060   
    17. B(H  17,C   5)                1.1018 -0.000397  0.0005    1.1024   
    18. B(H  18,C   5)                1.1200  0.008005 -0.0117    1.1083   
    19. B(H  19,C   5)                1.1133  0.004396 -0.0063    1.1070   
    20. A(H   7,C   0,H   8)          114.66  0.011892   -2.57    112.09   
    21. A(C   1,C   0,H   7)          112.91 -0.001621    0.03    112.94   
    22. A(C   1,C   0,H   6)          105.55 -0.013308    2.43    107.98   
    23. A(H   6,C   0,H   7)          111.37  0.008956   -1.59    109.78   
    24. A(H   6,C   0,H   8)          105.86  0.004807    0.08    105.94   
    25. A(C   1,C   0,H   8)          105.80 -0.013146    2.15    107.95   
    26. A(C   2,C   1,H  10)          109.04  0.005794   -0.64    108.40   
    27. A(C   0,C   1,H  10)          106.79  0.003276    0.44    107.23   
    28. A(C   2,C   1,H   9)          112.87  0.009268   -1.59    111.27   
    29. A(C   0,C   1,H   9)          109.94  0.006194   -0.44    109.49   
    30. A(H   9,C   1,H  10)          111.63 -0.000071   -2.00    109.63   
    31. A(C   0,C   1,C   2)          106.27 -0.025948    4.66    110.93   
    32. A(H  11,C   2,H  12)          108.61  0.002042   -1.20    107.41   
    33. A(C   1,C   2,C   3)          113.90 -0.004382    0.97    114.87   
    34. A(C   3,C   2,H  11)          108.66 -0.000215    0.18    108.83   
    35. A(C   1,C   2,H  11)          107.95  0.000958    0.13    108.08   
    36. A(C   1,C   2,H  12)          106.61 -0.001577    0.50    107.11   
    37. A(C   3,C   2,H  12)          110.96  0.003389   -0.67    110.28   
    38. A(C   2,C   3,C   4)          106.42 -0.031227    5.11    111.53   
    39. A(H  13,C   3,H  14)          107.15 -0.004245   -0.73    106.41   
    40. A(C   4,C   3,H  14)          107.29  0.006167   -0.17    107.12   
    41. A(C   2,C   3,H  14)          108.38  0.005627   -0.14    108.24   
    42. A(C   4,C   3,H  13)          113.05  0.012079   -1.99    111.06   
    43. A(C   2,C   3,H  13)          114.29  0.011818   -1.99    112.29   
    44. A(H  15,C   4,H  16)          110.87  0.003244   -1.79    109.08   
    45. A(C   5,C   4,H  16)          109.99  0.001718   -0.34    109.65   
    46. A(C   3,C   4,H  16)          105.66 -0.000877    0.57    106.24   
    47. A(C   5,C   4,H  15)          110.91  0.002409   -0.43    110.47   
    48. A(C   3,C   4,H  15)          106.29 -0.001570    0.75    107.04   
    49. A(C   3,C   4,C   5)          112.96 -0.005099    1.26    114.23   
    50. A(C   4,C   5,H  17)          113.62  0.003422   -0.84    112.79   
    51. A(H  18,C   5,H  19)          104.74  0.003663    0.34    105.08   
    52. A(H  17,C   5,H  19)          110.97  0.005459   -1.44    109.53   
    53. A(C   4,C   5,H  19)          109.17 -0.007135    1.23    110.40   
    54. A(H  17,C   5,H  18)          111.20  0.007766   -1.54    109.67   
    55. A(C   4,C   5,H  18)          106.67 -0.014001    2.51    109.18   
    56. D(H   9,C   1,C   0,H   8)   -179.48 -0.005066    1.68   -177.79   
    57. D(H  10,C   1,C   0,H   7)     67.96  0.004821   -2.39     65.57   
    58. D(H   9,C   1,C   0,H   7)    -53.29 -0.000634    0.01    -53.28   
    59. D(H  10,C   1,C   0,H   8)    -58.22  0.000388   -0.72    -58.94   
    60. D(H   9,C   1,C   0,H   6)     68.59  0.000549   -0.31     68.28   
    61. D(C   2,C   1,C   0,H   8)     58.08 -0.003884    1.00     59.08   
    62. D(C   2,C   1,C   0,H   7)   -175.74  0.000549   -0.67   -176.41   
    63. D(C   2,C   1,C   0,H   6)    -53.85  0.001732   -1.00    -54.85   
    64. D(H  10,C   1,C   0,H   6)   -170.15  0.006003   -2.72   -172.86   
    65. D(H  11,C   2,C   1,H   9)    -70.36  0.005734   -1.81    -72.17   
    66. D(C   3,C   2,C   1,H  10)    -74.26 -0.007518    3.34    -70.93   
    67. D(C   3,C   2,C   1,C   0)    170.96 -0.000752    0.74    171.70   
    68. D(H  11,C   2,C   1,C   0)     50.21  0.001648   -0.21     50.00   
    69. D(H  11,C   2,C   1,H  10)    164.98 -0.005117    2.40    167.38   
    70. D(H  12,C   2,C   1,H  10)     48.45 -0.007158    3.47     51.92   
    71. D(H  12,C   2,C   1,H   9)    173.11  0.003693   -0.74    172.37   
    72. D(H  12,C   2,C   1,C   0)    -66.32 -0.000393    0.87    -65.46   
    73. D(C   3,C   2,C   1,H   9)     50.39  0.003334   -0.86     49.53   
    74. D(H  14,C   3,C   2,H  11)     21.44 -0.007123    3.60     25.04   
    75. D(H  14,C   3,C   2,C   1)    -98.91 -0.005338    2.67    -96.24   
    76. D(H  13,C   3,C   2,H  12)    -99.83  0.003388   -0.46   -100.29   
    77. D(H  13,C   3,C   2,H  11)    140.83 -0.001028    1.30    142.14   
    78. D(H  13,C   3,C   2,C   1)     20.48  0.000757    0.37     20.85   
    79. D(C   4,C   3,C   2,H  11)    -93.66 -0.001204    1.28    -92.38   
    80. D(C   4,C   3,C   2,H  12)     25.68  0.003211   -0.49     25.19   
    81. D(H  14,C   3,C   2,H  12)    140.78 -0.002707    1.83    142.61   
    82. D(C   4,C   3,C   2,C   1)    145.98  0.000581    0.35    146.33   
    83. D(H  15,C   4,C   3,C   2)    -58.46 -0.002574    0.78    -57.68   
    84. D(C   5,C   4,C   3,H  14)     63.85  0.004422   -2.22     61.63   
    85. D(C   5,C   4,C   3,H  13)    -54.05 -0.001314   -0.06    -54.11   
    86. D(C   5,C   4,C   3,C   2)    179.69 -0.001406    0.04    179.74   
    87. D(H  16,C   4,C   3,H  14)    -56.44  0.005804   -2.90    -59.34   
    88. D(H  16,C   4,C   3,H  13)   -174.34  0.000068   -0.74   -175.08   
    89. D(H  16,C   4,C   3,C   2)     59.41 -0.000024   -0.64     58.76   
    90. D(H  15,C   4,C   3,H  14)   -174.30  0.003255   -1.48   -175.78   
    91. D(H  15,C   4,C   3,H  13)     67.80 -0.002481    0.68     68.48   
    92. D(H  19,C   5,C   4,H  16)     26.60 -0.007870    3.80     30.41   
    93. D(H  19,C   5,C   4,H  15)    149.61 -0.000922    1.00    150.61   
    94. D(H  19,C   5,C   4,C   3)    -91.18 -0.004684    2.51    -88.67   
    95. D(H  18,C   5,C   4,H  16)    -86.06 -0.001736    1.57    -84.48   
    96. D(H  18,C   5,C   4,H  15)     36.95  0.005212   -1.23     35.72   
    97. D(H  18,C   5,C   4,C   3)    156.16  0.001449    0.28    156.44   
    98. D(H  17,C   5,C   4,H  16)    151.05 -0.003744    2.26    153.31   
    99. D(H  17,C   5,C   4,H  15)    -85.95  0.003204   -0.54    -86.49   
   100. D(H  17,C   5,C   4,C   3)     33.27 -0.000559    0.96     34.23   
    ----------------------------------------------------------------------------

Time needed for optimization step       :     6.10 sec

         *************************************************************
         *                GEOMETRY OPTIMIZATION CYCLE   2            *
         *************************************************************
---------------------------------
CARTESIAN COORDINATES (ANGSTROEM)
---------------------------------
  C      3.185967    0.293352    0.195812
  C      1.861061   -0.494182    0.335694
  C      0.683782    0.314199   -0.218194
  C     -0.643831   -0.456622   -0.309819
  C     -1.852772    0.465567   -0.048666
  C     -3.209618   -0.239097   -0.130801
  H      3.303053    0.577537   -0.867355
  H      4.064873   -0.282723    0.526496
  H      3.077818    1.241815    0.751477
  H      1.954445   -1.467333   -0.177479
  H      1.691000   -0.659757    1.417997
  H      0.958843    0.673413   -1.228815
  H      0.566584    1.204453    0.429190
  H     -0.664375   -1.336959    0.356309
  H     -0.748082   -0.844451   -1.344140
  H     -1.709065    0.912864    0.954223
  H     -1.802415    1.264917   -0.811441
  H     -3.172336   -1.280725    0.228217
  H     -3.952857    0.332792    0.459824
  H     -3.592076   -0.219061   -1.169434

----------------------------
CARTESIAN COORDINATES (A.U.)
----------------------------
  NO LB      ZA    FRAG     MASS         X           Y           Z
   0 C     6.0000    0    12.011    6.020605    0.554354    0.370030
   1 C     6.0000    0    12.011    3.516896   -0.933869    0.634370
   2 C     6.0000    0    12.011    1.292161    0.593751   -0.412328
   3 C     6.0000    0    12.011   -1.216663   -0.862891   -0.585473
   4 C     6.0000    0    12.011   -3.501231    0.879795   -0.091965
   5 C     6.0000    0    12.011   -6.065298   -0.451828   -0.247179
   6 H     1.0000    0     1.008    6.241866    1.091388   -1.639064
   7 H     1.0000    0     1.008    7.681496   -0.534269    0.994933
   8 H     1.0000    0     1.008    5.816234    2.346690    1.420086
   9 H     1.0000    0     1.008    3.693365   -2.772858   -0.335387
  10 H     1.0000    0     1.008    3.195528   -1.246760    2.679627
  11 H     1.0000    0     1.008    1.811950    1.272565   -2.322124
  12 H     1.0000    0     1.008    1.070689    2.276086    0.811052
  13 H     1.0000    0     1.008   -1.255488   -2.526485    0.673326
  14 H     1.0000    0     1.008   -1.413669   -1.595781   -2.540057
  15 H     1.0000    0     1.008   -3.229665    1.725063    1.803220
  16 H     1.0000    0     1.008   -3.406071    2.390348   -1.533402
  17 H     1.0000    0     1.008   -5.994846   -2.420220    0.431267
  18 H     1.0000    0     1.008   -7.469816    0.628885    0.868941
  19 H     1.0000    0     1.008   -6.788040   -0.413966   -2.209910

--------------------------------
INTERNAL COORDINATES (ANGSTROEM)
--------------------------------
 C      0   0   0     0.000000000000     0.00000000     0.00000000
 C      1   0   0     1.547627656045     0.00000000     0.00000000
 C      2   1   0     1.531750155154   110.90003417     0.00000000
 C      3   2   1     1.537893835638   114.86733411   171.68813177
 C      4   3   2     1.542781236584   111.51715053   146.30850652
 C      5   4   3     1.531120043129   114.21993141   179.75424497
 H      1   2   3     1.106704276376   107.94297929   305.13457293
 H      1   2   3     1.101675611803   112.93948026   183.59423769
 H      1   2   3     1.104555822310   107.91846004    59.11616261
 H      2   1   3     1.104124526005   109.51710182   123.13187608
 H      2   1   3     1.108023454225   107.20082469   241.95343902
 H      3   2   1     1.107269970307   108.07880934    49.99174859
 H      3   2   1     1.106974848028   107.11707182   294.53482253
 H      4   3   2     1.104146943626   112.31766601    20.85798402
 H      4   3   2     1.109549087853   108.17040236   263.75998765
 H      5   4   3     1.107479873403   107.03931498   302.34504170
 H      5   4   3     1.106039507285   106.23527916    58.77805528
 H      6   5   4     1.102394405432   112.79402718    34.23249630
 H      6   5   4     1.108286295992   109.16066193   156.41730342
 H      6   5   4     1.106993201203   110.37542481   271.34746340

---------------------------
INTERNAL COORDINATES (A.U.)
---------------------------
 C      0   0   0     0.000000000000     0.00000000     0.00000000
 C      1   0   0     2.924592427208     0.00000000     0.00000000
 C      2   1   0     2.894588298832   110.90003417     0.00000000
 C      3   2   1     2.906198172401   114.86733411   171.68813177
 C      4   3   2     2.915434021696   111.51715053   146.30850652
 C      5   4   3     2.893397559672   114.21993141   179.75424497
 H      1   2   3     2.091367993591   107.94297929   305.13457293
 H      1   2   3     2.081865194728   112.93948026   183.59423769
[...]
  32   0.0000       0.138219         3.7611 
  33   0.0000       0.157142         4.2760 
  34   0.0000       0.157755         4.2927 
  35   0.0000       0.158213         4.3052 
  36   0.0000       0.165362         4.4997 
  37   0.0000       0.179871         4.8945 
  38   0.0000       0.184511         5.0208 
  39   0.0000       0.217123         5.9082 
  40   0.0000       0.227307         6.1853 
  41   0.0000       0.246891         6.7182 
  42   0.0000       0.263825         7.1791 
  43   0.0000       0.277501         7.5512 
  44   0.0000       0.407403        11.0860 
  45   0.0000       0.426241        11.5986 
  46   0.0000       0.430250        11.7077 
  47   0.0000       0.434199        11.8152 
  48   0.0000       0.440707        11.9923 
  49   0.0000       0.447797        12.1852 
  50   0.0000       0.497402        13.5350 
  51   0.0000       0.528548        14.3825 
  52   0.0000       0.542288        14.7564 
  53   0.0000       0.555829        15.1249 
  54   0.0000       0.626674        17.0527 
  55   0.0000       0.644155        17.5284 
  56   0.0000       0.661907        18.0114 
  57   0.0000       0.669505        18.2182 
  58   0.0000       0.672154        18.2903 
  59   0.0000       0.681706        18.5502 
  60   0.0000       0.689406        18.7597 
  61   0.0000       0.694599        18.9010 
  62   0.0000       0.710333        19.3291 
  63   0.0000       0.713206        19.4073 
  64   0.0000       0.713893        19.4260 
  65   0.0000       0.714100        19.4316 
  66   0.0000       0.719709        19.5843 
  67   0.0000       0.729194        19.8424 
  68   0.0000       0.731401        19.9024 
  69   0.0000       0.735333        20.0094 
  70   0.0000       0.743124        20.2214 
  71   0.0000       0.747527        20.3412 
  72   0.0000       0.755594        20.5608 
  73   0.0000       0.760136        20.6844 
  74   0.0000       0.763519        20.7764 
  75   0.0000       0.929328        25.2883 
  76   0.0000       1.033518        28.1235 
  77   0.0000       1.033992        28.1364 
  78   0.0000       1.037138        28.2220 
  79   0.0000       1.053799        28.6753 
  80   0.0000       1.058882        28.8136 
  81   0.0000       1.137633        30.9566 
  82   0.0000       1.393783        37.9268 
  83   0.0000       1.506769        41.0013 
  84   0.0000       1.511418        41.1278 
  85   0.0000       1.636746        44.5381 
  86   0.0000       1.684668        45.8421 
  87   0.0000       1.793876        48.8138 
  88   0.0000       1.820101        49.5275 
  89   0.0000       1.867425        50.8152 
  90   0.0000       1.885721        51.3131 
  91   0.0000       1.893898        51.5356 
  92   0.0000       1.907113        51.8952 
  93   0.0000       1.957608        53.2692 
  94   0.0000       1.970807        53.6284 
  95   0.0000       1.984055        53.9889 
  96   0.0000       2.017193        54.8906 
  97   0.0000       2.055807        55.9413 
  98   0.0000       2.140533        58.2469 
  99   0.0000       2.143536        58.3286 
 100   0.0000       2.169768        59.0424 
 101   0.0000       2.241567        60.9961 
 102   0.0000       2.263420        61.5908 
 103   0.0000       2.263719        61.5989 
 104   0.0000       2.340877        63.6985 
 105   0.0000       2.345962        63.8369 
 106   0.0000       2.415779        65.7367 
 107   0.0000       2.516859        68.4872 
 108   0.0000       2.540399        69.1278 
 109   0.0000       2.594597        70.6026 
 110   0.0000       2.755726        74.9871 
 111   0.0000       2.789103        75.8954 

                    ********************************
                    * MULLIKEN POPULATION ANALYSIS *
                    ********************************

------------------------------------------
FOD BASED MULLIKEN REDUCED ORBITAL CHARGES
------------------------------------------
  0 C s       :    -0.000000  s :    -0.000000
      pz      :     0.000000  p :     0.000000
      px      :     0.000000
      py      :     0.000000
      dz2     :     0.000000  d :     0.000000
      dxz     :     0.000000
      dyz     :     0.000000
      dx2y2   :     0.000000
      dxy     :     0.000000
  1 C s       :    -0.000000  s :    -0.000000
      pz      :     0.000000  p :     0.000000
      px      :     0.000000
      py      :     0.000000
      dz2     :     0.000000  d :     0.000000
      dxz     :     0.000000
      dyz     :     0.000000
      dx2y2   :     0.000000
      dxy     :     0.000000
  2 C s       :    -0.000000  s :    -0.000000
      pz      :     0.000000  p :     0.000000
      px      :     0.000000
      py      :     0.000000
      dz2     :     0.000000  d :     0.000000
      dxz     :     0.000000
      dyz     :     0.000000
      dx2y2   :     0.000000
      dxy     :     0.000000
  3 C s       :    -0.000000  s :    -0.000000
      pz      :     0.000000  p :     0.000000
      px      :     0.000000
      py      :     0.000000
      dz2     :     0.000000  d :     0.000000
      dxz     :     0.000000
      dyz     :     0.000000
      dx2y2   :     0.000000
      dxy     :     0.000000
  4 C s       :    -0.000000  s :    -0.000000
      pz      :     0.000000  p :     0.000000
      px      :     0.000000
      py      :     0.000000
      dz2     :     0.000000  d :     0.000000
      dxz     :     0.000000
      dyz     :     0.000000
      dx2y2   :     0.000000
      dxy     :     0.000000
  5 C s       :    -0.000000  s :    -0.000000
      pz      :     0.000000  p :     0.000000
      px      :     0.000000
      py      :     0.000000
      dz2     :     0.000000  d :     0.000000
      dxz     :     0.000000
      dyz     :     0.000000
      dx2y2   :     0.000000
      dxy     :     0.000000
  6 H s       :     0.000000  s :     0.000000
  7 H s       :     0.000000  s :     0.000000
  8 H s       :     0.000000  s :     0.000000
  9 H s       :     0.000000  s :     0.000000
 10 H s       :     0.000000  s :     0.000000
 11 H s       :     0.000000  s :     0.000000
 12 H s       :     0.000000  s :     0.000000
 13 H s       :     0.000000  s :     0.000000
 14 H s       :     0.000000  s :     0.000000
 15 H s       :     0.000000  s :     0.000000
 16 H s       :     0.000000  s :     0.000000
 17 H s       :     0.000000  s :     0.000000
 18 H s       :     0.000000  s :     0.000000
 19 H s       :     0.000000  s :     0.000000


                     *******************************
                     * LOEWDIN POPULATION ANALYSIS *
                     *******************************

-------------------------------------------
LOEWDIN ATOMIC CHARGES AND SPIN POPULATIONS
-------------------------------------------
   0 C :   -0.318660    0.000000
   1 C :   -0.217383    0.000000
   2 C :   -0.211000    0.000000
   3 C :   -0.211003    0.000000
   4 C :   -0.217378    0.000000
   5 C :   -0.318660    0.000000
   6 H :    0.108496    0.000000
   7 H :    0.110835    0.000000
   8 H :    0.108564    0.000000
   9 H :    0.105628    0.000000
  10 H :    0.105187    0.000000
  11 H :    0.104037    0.000000
  12 H :    0.104291    0.000000
  13 H :    0.104042    0.000000
  14 H :    0.104288    0.000000
  15 H :    0.105630    0.000000
  16 H :    0.105186    0.000000
  17 H :    0.108503    0.000000
  18 H :    0.110832    0.000000
  19 H :    0.108564    0.000000

----------------------------------------------------
LOEWDIN REDUCED ORBITAL CHARGES AND SPIN POPULATIONS
----------------------------------------------------
CHARGE
  0 C s       :     2.952435  s :     2.952435
      pz      :     1.113189  p :     3.292843
      px      :     1.076437
      py      :     1.103217
      dz2     :     0.013899  d :     0.073382
      dxz     :     0.004160
      dyz     :     0.023832
      dx2y2   :     0.010569
      dxy     :     0.020922
  1 C s       :     2.911953  s :     2.911953
      pz      :     1.092740  p :     3.214774
      px      :     1.044624
      py      :     1.077409
      dz2     :     0.014246  d :     0.090655
      dxz     :     0.006947
      dyz     :     0.029264
      dx2y2   :     0.017248
      dxy     :     0.022950
  2 C s       :     2.914542  s :     2.914542
      pz      :     1.091792  p :     3.206408
      px      :     1.038489
      py      :     1.076127
      dz2     :     0.014090  d :     0.090051
      dxz     :     0.006860
      dyz     :     0.029446
      dx2y2   :     0.017184
      dxy     :     0.022470
  3 C s       :     2.914550  s :     2.914550
      pz      :     1.091797  p :     3.206405
      px      :     1.038479
      py      :     1.076129
      dz2     :     0.014094  d :     0.090049
      dxz     :     0.006854
      dyz     :     0.029444
      dx2y2   :     0.017189
      dxy     :     0.022467
  4 C s       :     2.911957  s :     2.911957
      pz      :     1.092753  p :     3.214770
      px      :     1.044618
      py      :     1.077400
      dz2     :     0.014244  d :     0.090651
      dxz     :     0.006939
      dyz     :     0.029270
      dx2y2   :     0.017247
      dxy     :     0.022951
  5 C s       :     2.952432  s :     2.952432
      pz      :     1.113195  p :     3.292846
      px      :     1.076438
      py      :     1.103213
      dz2     :     0.013904  d :     0.073382
      dxz     :     0.004153
      dyz     :     0.023832
      dx2y2   :     0.010571
      dxy     :     0.020922
  6 H s       :     0.891504  s :     0.891504
  7 H s       :     0.889165  s :     0.889165
  8 H s       :     0.891436  s :     0.891436
  9 H s       :     0.894372  s :     0.894372
 10 H s       :     0.894813  s :     0.894813
 11 H s       :     0.895963  s :     0.895963
 12 H s       :     0.895709  s :     0.895709
 13 H s       :     0.895958  s :     0.895958
 14 H s       :     0.895712  s :     0.895712
 15 H s       :     0.894370  s :     0.894370
 16 H s       :     0.894814  s :     0.894814
 17 H s       :     0.891497  s :     0.891497
 18 H s       :     0.889168  s :     0.889168
 19 H s       :     0.891436  s :     0.891436

SPIN
  0 C s       :     0.000000  s :     0.000000
      pz      :     0.000000  p :     0.000000
      px      :     0.000000
      py      :     0.000000
      dz2     :     0.000000  d :     0.000000
      dxz     :     0.000000
      dyz     :     0.000000
      dx2y2   :     0.000000
      dxy     :     0.000000
  1 C s       :     0.000000  s :     0.000000
      pz      :     0.000000  p :     0.000000
      px      :     0.000000
      py      :     0.000000
      dz2     :     0.000000  d :     0.000000
      dxz     :     0.000000
      dyz     :     0.000000
      dx2y2   :     0.000000
      dxy     :     0.000000
  2 C s       :     0.000000  s :     0.000000
      pz      :     0.000000  p :     0.000000
      px      :     0.000000
      py      :     0.000000
      dz2     :     0.000000  d :     0.000000
      dxz     :     0.000000
      dyz     :     0.000000
      dx2y2   :     0.000000
      dxy     :     0.000000
  3 C s       :     0.000000  s :     0.000000
      pz      :     0.000000  p :     0.000000
      px      :     0.000000
      py      :     0.000000
      dz2     :     0.000000  d :     0.000000
      dxz     :     0.000000
      dyz     :     0.000000
      dx2y2   :     0.000000
      dxy     :     0.000000
  4 C s       :     0.000000  s :     0.000000
      pz      :     0.000000  p :     0.000000
      px      :     0.000000
      py      :     0.000000
      dz2     :     0.000000  d :     0.000000
      dxz     :     0.000000
      dyz     :     0.000000
      dx2y2   :     0.000000
      dxy     :     0.000000
  5 C s       :     0.000000  s :     0.000000
      pz      :     0.000000  p :     0.000000
      px      :     0.000000
      py      :     0.000000
      dz2     :     0.000000  d :     0.000000
      dxz     :     0.000000
      dyz     :     0.000000
      dx2y2   :     0.000000
      dxy     :     0.000000
  6 H s       :     0.000000  s :     0.000000
  7 H s       :     0.000000  s :     0.000000
  8 H s       :     0.000000  s :     0.000000
  9 H s       :     0.000000  s :     0.000000
 10 H s       :     0.000000  s :     0.000000
 11 H s       :     0.000000  s :     0.000000
 12 H s       :     0.000000  s :     0.000000
 13 H s       :     0.000000  s :     0.000000
 14 H s       :     0.000000  s :     0.000000
 15 H s       :     0.000000  s :     0.000000
 16 H s       :     0.000000  s :     0.000000
 17 H s       :     0.000000  s :     0.000000
 18 H s       :     0.000000  s :     0.000000
 19 H s       :     0.000000  s :     0.000000


                      *****************************
                      * MAYER POPULATION ANALYSIS *
                      *****************************

  NA   - Mulliken gross atomic population
  ZA   - Total nuclear charge
  QA   - Mulliken gross atomic charge
  VA   - Mayer's total valence
  BVA  - Mayer's bonded valence
  FA   - Mayer's free valence

  ATOM       NA         ZA         QA         VA         BVA        FA
  0 C      6.2381     6.0000    -0.2381     4.0040     4.0040     0.0000
  1 C      6.1467     6.0000    -0.1467     4.1168     4.1168     0.0000
  2 C      6.1510     6.0000    -0.1510     4.0843     4.0843     0.0000
  3 C      6.1511     6.0000    -0.1511     4.0843     4.0843     0.0000
  4 C      6.1466     6.0000    -0.1466     4.1167     4.1167     0.0000
  5 C      6.2381     6.0000    -0.2381     4.0040     4.0040     0.0000
  6 H      0.9142     1.0000     0.0858     0.9576     0.9576     0.0000
  7 H      0.9097     1.0000     0.0903     0.9522     0.9522     0.0000
  8 H      0.9139     1.0000     0.0861     0.9579     0.9579     0.0000
  9 H      0.9280     1.0000     0.0720     0.9500     0.9500     0.0000
 10 H      0.9302     1.0000     0.0698     0.9501     0.9501     0.0000
 11 H      0.9348     1.0000     0.0652     0.9558     0.9558     0.0000
 12 H      0.9334     1.0000     0.0666     0.9558     0.9558     0.0000
 13 H      0.9348     1.0000     0.0652     0.9558     0.9558     0.0000
 14 H      0.9334     1.0000     0.0666     0.9558     0.9558     0.0000
 15 H      0.9281     1.0000     0.0719     0.9500     0.9500     0.0000
 16 H      0.9302     1.0000     0.0698     0.9501     0.9501     0.0000
 17 H      0.9142     1.0000     0.0858     0.9576     0.9576     0.0000
 18 H      0.9097     1.0000     0.0903     0.9522     0.9522     0.0000
 19 H      0.9139     1.0000     0.0861     0.9579     0.9579     0.0000

  Mayer bond orders larger than 0.100000
B(  0-C ,  1-C ) :   1.1326 B(  0-C ,  6-H ) :   0.9602 B(  0-C ,  7-H ) :   0.9598 
B(  0-C ,  8-H ) :   0.9603 B(  1-C ,  2-C ) :   1.1160 B(  1-C ,  9-H ) :   0.9349 
B(  1-C , 10-H ) :   0.9346 B(  2-C ,  3-C ) :   1.1172 B(  2-C , 11-H ) :   0.9302 
B(  2-C , 12-H ) :   0.9303 B(  3-C ,  4-C ) :   1.1160 B(  3-C , 13-H ) :   0.9302 
B(  3-C , 14-H ) :   0.9304 B(  4-C ,  5-C ) :   1.1326 B(  4-C , 15-H ) :   0.9348 
B(  4-C , 16-H ) :   0.9346 B(  5-C , 17-H ) :   0.9602 B(  5-C , 18-H ) :   0.9598 
B(  5-C , 19-H ) :   0.9603 

-------
TIMINGS
-------

Total SCF time: 0 days 0 hours 3 min 27 sec 

Total time                  ....     207.130 sec
Sum of individual times     ....     155.022 sec  ( 74.8%)

Fock matrix formation       ....     135.629 sec  ( 65.5%)
  XC integration            ....      54.915 sec  ( 40.5% of F)
    Basis function eval.    ....       1.018 sec  (  1.9% of XC)
    Density eval.           ....       0.783 sec  (  1.4% of XC)
    XC-Functional eval.     ....       0.242 sec  (  0.4% of XC)
    XC-Potential eval.      ....       1.019 sec  (  1.9% of XC)
Diagonalization             ....       0.056 sec  (  0.0%)
Density matrix formation    ....       7.420 sec  (  3.6%)
Population analysis         ....       5.853 sec  (  2.8%)
Initial guess               ....       0.007 sec  (  0.0%)
Orbital Transformation      ....       0.000 sec  (  0.0%)
Orbital Orthonormalization  ....       0.004 sec  (  0.0%)
DIIS solution               ....       3.375 sec  (  1.6%)
Grid generation             ....       2.682 sec  (  1.3%)


-------------------------------------------------------------------------------
                          DFT DISPERSION CORRECTION                            
                                                                               
                              DFTD3 V3.1  Rev 1                                
                          USING Becke-Johnson damping                          
-------------------------------------------------------------------------------
The B3LYP functional is recognized
Active option DFTDOPT                   ...         4   

molecular C6(AA) [au] = 2518.991413 


            DFT-D V3
 parameters
 s6 scaling factor         :     1.0000 
 a1 scaling factor         :     0.3981 
 s8 scaling factor         :     1.9889 
 a2 scaling factor         :     4.4211 
 ad hoc parameters k1-k3   :    16.0000     1.3333    -4.0000 

 Edisp/kcal,au: -15.025285659276  -0.023944314273 
 E6   /kcal   :  -7.550743360 
 E8   /kcal   :  -7.474542299 
 % E8         :  49.746423920 

-------------------------   ----------------
Dispersion correction           -0.023944314
-------------------------   ----------------


-------------------------   --------------------
FINAL SINGLE POINT ENERGY      -236.724039861073
-------------------------   --------------------

                                *** OPTIMIZATION RUN DONE ***

                            ***************************************
                            *     ORCA property calculations      *
                            ***************************************

                                    ---------------------
                                    Active property flags
                                    ---------------------
   (+) Dipole Moment


------------------------------------------------------------------------------
                       ORCA ELECTRIC PROPERTIES CALCULATION
------------------------------------------------------------------------------

Dipole Moment Calculation                       ... on
Quadrupole Moment Calculation                   ... off
Polarizability Calculation                      ... off
GBWName                                         ... orca0.gbw
Electron density file                           ... orca0.scfp
The origin for moment calculation is the CENTER OF MASS  = ( 0.000019,  0.000017 -0.061740)

-------------
DIPOLE MOMENT
-------------
                                X             Y             Z
Electronic contribution:      0.00015       0.00019      -0.00246
Nuclear contribution   :     -0.00020      -0.00019       0.00258
                        -----------------------------------------
Total Dipole Moment    :     -0.00005       0.00000       0.00012
                        -----------------------------------------
Magnitude (a.u.)       :      0.00013
Magnitude (Debye)      :      0.00033



--------------------
Rotational spectrum 
--------------------
 
Rotational constants in cm-1:     0.483348     0.037559     0.036279 
Rotational constants in MHz : 14490.418142  1126.003152  1087.605321 

 Dipole components along the rotational axes: 
x,y,z [a.u.] :    -0.000039    -0.000003    -0.000123 
x,y,z [Debye]:    -0.000100    -0.000006    -0.000312 

 

Timings for individual modules:

Sum of individual times         ...     4450.321 sec (=  74.172 min)
GTO integral calculation        ...       94.500 sec (=   1.575 min)   2.1 %
SCF iterations                  ...     4144.576 sec (=  69.076 min)  93.1 %
SCF Gradient evaluation         ...      158.117 sec (=   2.635 min)   3.6 %
Geometry relaxation             ...       53.128 sec (=   0.885 min)   1.2 %
                             ****ORCA TERMINATED NORMALLY****
TOTAL RUN TIME: 0 days 1 hours 16 minutes 51 seconds 439 msec
