
                                 *****************
                                 * O   R   C   A *
                                 *****************

           --- An Ab Initio, DFT and Semiempirical electronic structure package ---

                  #######################################################
                  #                        -***-                        #
                  #          Department of theory and spectroscopy      #
                  #               Directorship: Frank Neese             #
                  #        Max Planck Institute fuer Kohlenforschung    #
                  #                Kaiser Wilhelm Platz 1               #
                  #                 D-45470 Muelheim/Ruhr               #
                  #                      Germany                        #
                  #                                                     #
                  #                  All rights reserved                #
                  #                        -***-                        #
                  #######################################################


                         Program Version 4.2.1 -  RELEASE  -


 With contributions from (in alphabetic order):
   Daniel Aravena         : Magnetic Suceptibility
   Michael Atanasov       : Ab Initio Ligand Field Theory (pilot matlab implementation)
   Alexander A. Auer      : GIAO ZORA, VPT2
   Ute Becker             : Parallelization
   Giovanni Bistoni       : ED, misc. LED, open-shell LED, HFLD
   Martin Brehm           : Molecular dynamics
   Dmytro Bykov           : SCF Hessian
   Vijay G. Chilkuri      : MRCI spin determinant printing, contributions to CSF-ICE
   Dipayan Datta          : RHF DLPNO-CCSD density
   Achintya Kumar Dutta   : EOM-CC, STEOM-CC
   Dmitry Ganyushin       : Spin-Orbit,Spin-Spin,Magnetic field MRCI
   Miquel Garcia          : C-PCM Hessian, Gaussian charge scheme
   Yang Guo               : DLPNO-NEVPT2, CIM, IAO-localization
   Andreas Hansen         : Spin unrestricted coupled pair/coupled cluster methods
   Benjamin Helmich-Paris : CASSCF linear response (MC-RPA)
   Lee Huntington         : MR-EOM, pCC
   Robert Izsak           : Overlap fitted RIJCOSX, COSX-SCS-MP3, EOM
   Christian Kollmar      : KDIIS, OOCD, Brueckner-CCSD(T), CCSD density
   Simone Kossmann        : Meta GGA functionals, TD-DFT gradient, OOMP2, MP2 Hessian
   Martin Krupicka        : AUTO-CI
   Lucas Lang             : DCDCAS
   Dagmar Lenk            : GEPOL surface, SMD
   Dimitrios Liakos       : Extrapolation schemes; Compound Job, initial MDCI parallelization
   Dimitrios Manganas     : Further ROCIS development; embedding schemes
   Dimitrios Pantazis     : SARC Basis sets
   Taras Petrenko         : DFT Hessian,TD-DFT gradient, ASA, ECA, R-Raman, ABS, FL, XAS/XES, NRVS
   Peter Pinski           : DLPNO-MP2, DLPNO-MP2 Gradient
   Christoph Reimann      : Effective Core Potentials
   Marius Retegan         : Local ZFS, SOC
   Christoph Riplinger    : Optimizer, TS searches, QM/MM, DLPNO-CCSD(T), (RO)-DLPNO pert. Triples
   Tobias Risthaus        : Range-separated hybrids, TD-DFT gradient, RPA, STAB
   Michael Roemelt        : Original ROCIS implementation
   Masaaki Saitow         : Open-shell DLPNO-CCSD energy and density
   Barbara Sandhoefer     : DKH picture change effects
   Avijit Sen             : IP-ROCIS
   Kantharuban Sivalingam : CASSCF convergence, NEVPT2, FIC-MRCI
   Bernardo de Souza      : ESD, SOC TD-DFT
   Georgi Stoychev        : AutoAux, RI-MP2 NMR
   Willem Van den Heuvel  : Paramagnetic NMR
   Boris Wezisla          : Elementary symmetry handling
   Frank Wennmohs         : Technical directorship


 We gratefully acknowledge several colleagues who have allowed us to
 interface, adapt or use parts of their codes:
   Stefan Grimme, W. Hujo, H. Kruse,             : VdW corrections, initial TS optimization,
                  C. Bannwarth                     DFT functionals, gCP, sTDA/sTD-DF
   Ed Valeev, F. Pavosevic, A. Kumar             : LibInt (2-el integral package), F12 methods
   Garnet Chan, S. Sharma, J. Yang, R. Olivares  : DMRG
   Ulf Ekstrom                                   : XCFun DFT Library
   Mihaly Kallay                                 : mrcc  (arbitrary order and MRCC methods)
   Andreas Klamt, Michael Diedenhofen            : otool_cosmo (COSMO solvation model)
   Jiri Pittner, Ondrej Demel                    : Mk-CCSD
   Frank Weinhold                                : gennbo (NPA and NBO analysis)
   Christopher J. Cramer and Donald G. Truhlar   : smd solvation model
   Lars Goerigk                                  : TD-DFT with DH, B97 family of functionals
   V. Asgeirsson, H. Jonsson                     : NEB implementation
   FAccTs GmbH                                   : IRC, NEB, NEB-TS, Multilevel, MM, QM/MM, CI optimization
   S Lehtola, MJT Oliveira, MAL Marques          : LibXC Library


 Your calculation uses the libint2 library for the computation of 2-el integrals
 For citations please refer to: http://libint.valeyev.net

 Your ORCA version has been built with support for libXC version: 4.2.3
 For citations please refer to: https://tddft.org/programs/libxc/

 This ORCA versions uses:
   CBLAS   interface :  Fast vector & matrix operations
   LAPACKE interface :  Fast linear algebra routines
   SCALAPACK package :  Parallel linear algebra routines


Your calculation utilizes the atom-pairwise dispersion correction
with the Becke-Johnson damping scheme (D3BJ)
Cite in your paper:
S.Grimme, S.Ehrlich, L.Goerigk, J Comput Chem, (2011), 32, 1456–1465 
S.Grimme, J.Antony, S.Ehrlich and H.Krieg, J.Chem.Phys., 132, (2010), 154104 
   

----- Orbital basis set information -----
Your calculation utilizes the basis: def2-SV(P)
   F. Weigend and R. Ahlrichs, Phys. Chem. Chem. Phys. 7, 3297 (2005).

----- AuxJ basis set information -----
Your calculation utilizes the auxiliary basis: def2/J
   F. Weigend, Phys. Chem. Chem. Phys. 8, 1057 (2006).

================================================================================
                                        WARNINGS
                       Please study these warnings very carefully!
================================================================================


WARNING: Geometry Optimization
  ===> : Switching off AutoStart
         For restart on a previous wavefunction, please use MOREAD

INFO   : the flag for use of LIBINT has been found!

================================================================================
                                       INPUT FILE
================================================================================
NAME = orca1.inp
|  1> ! UKS B3LYP def2-SV(P) def2/J D3BJ Opt
|  2> %scf Convergence VeryTight
|  3> SmearTemp 2000
|  4> maxiter 500
|  5> end
|  6> *xyz 0 1
|  7> C -4.58222 0.591507 0.615133
|  8> C -4.075553 -0.832754 0.748502
|  9> C -2.893188 -1.069028 -0.155279
| 10> C -1.768179 -0.106348 0.100227
| 11> C -0.609132 -0.453605 -0.796338
| 12> C 0.518858 0.535736 -0.721412
| 13> C 1.67399 0.030581 0.135944
| 14> C 2.821875 0.973189 -0.101
| 15> C 4.046102 0.64061 0.706035
| 16> C 4.856324 -0.482871 0.127378
| 17> H -5.643545 0.6027 0.97032
| 18> H -4.581708 0.934186 -0.432682
| 19> H -4.007009 1.223791 1.3044
| 20> H -4.899258 -1.49216 0.406459
| 21> H -3.87012 -1.040546 1.809029
| 22> H -3.247488 -0.897084 -1.193582
| 23> H -2.60548 -2.126519 -0.047559
| 24> H -2.121583 0.905582 -0.211387
| 25> H -1.475948 -0.058535 1.168084
| 26> H -0.252099 -1.470528 -0.532224
| 27> H -0.992375 -0.441386 -1.843811
| 28> H 0.970574 0.747858 -1.72389
| 29> H 0.227261 1.511655 -0.288475
| 30> H 1.913278 -1.021088 -0.070395
| 31> H 1.335581 0.142415 1.196748
| 32> H 3.041901 1.050847 -1.180646
| 33> H 2.479221 1.987663 0.215019
| 34> H 3.751438 0.447474 1.749525
| 35> H 4.687892 1.558243 0.695475
| 36> H 5.73032 -0.131187 -0.470226
| 37> H 4.272192 -1.201997 -0.467846
| 38> H 5.298078 -1.058402 0.974581
| 39> *
| 40> 
| 41>                          ****END OF INPUT****
================================================================================

                       *****************************
                       * Geometry Optimization Run *
                       *****************************

Geometry optimization settings:
Update method            Update   .... BFGS
Choice of coordinates    CoordSys .... Z-matrix Internals
Initial Hessian          InHess   .... Almoef's Model

Convergence Tolerances:
Energy Change            TolE     ....  5.0000e-06 Eh
Max. Gradient            TolMAXG  ....  3.0000e-04 Eh/bohr
RMS Gradient             TolRMSG  ....  1.0000e-04 Eh/bohr
Max. Displacement        TolMAXD  ....  4.0000e-03 bohr
RMS Displacement         TolRMSD  ....  2.0000e-03 bohr
Strict Convergence                ....  False
------------------------------------------------------------------------------
                        ORCA OPTIMIZATION COORDINATE SETUP
------------------------------------------------------------------------------

The optimization will be done in new redundant internal coordinates
Making redundant internal coordinates   ...  (new redundants) done
Evaluating the initial hessian          ...  (Almloef) done
Evaluating the coordinates              ...  done
Calculating the B-matrix                .... done
Calculating the G-matrix                .... done
Diagonalizing the G-matrix              .... done
Small eigenvalue found = 4.920e-03
Small eigenvalue found = 6.317e-03
Small eigenvalue found = 1.522e-02
Small eigenvalue found = 2.915e-02
The first mode is                       ....   82
The number of degrees of freedom        ....   90

    -----------------------------------------------------------------
                    Redundant Internal Coordinates


    -----------------------------------------------------------------
         Definition                    Initial Value    Approx d2E/dq
    -----------------------------------------------------------------
      1. B(C   1,C   0)                  1.5176         0.391029   
      2. B(C   2,C   1)                  1.5069         0.406718   
      3. B(C   3,C   2)                  1.5026         0.413199   
      4. B(C   4,C   3)                  1.5059         0.408122   
      5. B(C   5,C   4)                  1.5023         0.413659   
      6. B(C   6,C   5)                  1.5247         0.380983   
      7. B(C   7,C   6)                  1.5041         0.410877   
      8. B(C   8,C   7)                  1.5035         0.411704   
      9. B(C   9,C   8)                  1.5012         0.415311   
     10. B(H  10,C   0)                  1.1192         0.323427   
     11. B(H  11,C   0)                  1.1024         0.344030   
     12. B(H  12,C   0)                  1.0981         0.349592   
     13. B(H  13,C   1)                  1.1092         0.335590   
     14. B(H  14,C   1)                  1.1000         0.347055   
     15. B(H  15,C   2)                  1.1105         0.334001   
     16. B(H  16,C   2)                  1.1012         0.345570   
     17. B(H  17,C   3)                  1.1162         0.327004   
     18. B(H  18,C   3)                  1.1082         0.336869   
     19. B(H  19,C   4)                  1.1097         0.335001   
     20. B(H  20,C   4)                  1.1154         0.327961   
     21. B(H  21,C   5)                  1.1198         0.322731   
     22. B(H  22,C   5)                  1.1067         0.338618   
     23. B(H  23,C   6)                  1.0981         0.349532   
     24. B(H  24,C   6)                  1.1191         0.323618   
     25. B(H  25,C   7)                  1.1046         0.341331   
     26. B(H  26,C   7)                  1.1164         0.326769   
     27. B(H  27,C   8)                  1.1014         0.345378   
     28. B(H  28,C   8)                  1.1198         0.322704   
     29. B(H  29,C   9)                  1.1157         0.327715   
     30. B(H  30,C   9)                  1.1012         0.345583   
     31. B(H  31,C   9)                  1.1154         0.328009   
     32. A(C   1,C   0,H  12)          108.0806         0.325175   
     33. A(C   1,C   0,H  11)          112.0307         0.324319   
     34. A(H  11,C   0,H  12)          114.6697         0.287430   
     35. A(C   1,C   0,H  10)          107.3428         0.321053   
     36. A(H  10,C   0,H  11)          107.3950         0.283967   
     37. A(H  10,C   0,H  12)          106.9643         0.284676   
     38. A(H  13,C   1,H  14)          108.8857         0.285993   
     39. A(C   2,C   1,H  14)          113.7082         0.326895   
     40. A(C   0,C   1,H  14)          108.9265         0.324786   
     41. A(C   0,C   1,H  13)          106.4336         0.323000   
     42. A(C   0,C   1,C   2)          110.8804         0.371586   
     43. A(C   2,C   1,H  13)          107.7298         0.325093   
     44. A(C   3,C   2,H  15)          107.3780         0.325685   
     45. A(C   3,C   2,H  16)          113.7663         0.327516   
     46. A(C   1,C   2,H  16)          107.2719         0.326664   
     47. A(C   1,C   2,H  15)          106.6288         0.324839   
     48. A(C   1,C   2,C   3)          112.6464         0.375136   
     49. A(H  15,C   2,H  16)          108.8752         0.285590   
     50. A(C   4,C   3,H  18)          112.3766         0.325481   
     51. A(C   4,C   3,H  17)          106.6496         0.323895   
     52. A(C   2,C   3,C   4)          109.1041         0.375359   
     53. A(C   2,C   3,H  17)          107.2356         0.324553   
     54. A(C   2,C   3,H  18)          112.8895         0.326143   
     55. A(H  17,C   3,H  18)          108.2635         0.283524   
     56. A(C   5,C   4,H  19)          110.4915         0.325905   
     57. A(C   3,C   4,H  19)          108.4970         0.325183   
     58. A(C   3,C   4,C   5)          113.3504         0.375431   
     59. A(C   5,C   4,H  20)          107.3136         0.324769   
     60. A(C   3,C   4,H  20)          106.9846         0.324051   
     61. A(H  19,C   4,H  20)          110.1264         0.283408   
     62. A(C   4,C   5,C   6)          112.2549         0.371005   
     63. A(C   6,C   5,H  22)          105.7716         0.322099   
     64. A(C   4,C   5,H  22)          113.7284         0.326481   
     65. A(C   6,C   5,H  21)          105.1025         0.319578   
     66. A(C   4,C   5,H  21)          112.5187         0.323912   
     67. A(H  21,C   5,H  22)          106.8242         0.283174   
     68. A(C   5,C   6,C   7)          106.3786         0.370574   
     69. A(H  23,C   6,H  24)          109.8600         0.284694   
     70. A(C   7,C   6,H  24)          108.5109         0.323700   
     71. A(C   5,C   6,H  24)          105.7135         0.319721   
     72. A(C   7,C   6,H  23)          113.8466         0.327827   
     73. A(C   5,C   6,H  23)          112.1322         0.323779   
     74. A(C   6,C   7,C   8)          113.4668         0.375560   
     75. A(H  25,C   7,H  26)          105.8979         0.284073   
     76. A(C   8,C   7,H  26)          107.3952         0.324322   
     77. A(C   6,C   7,H  26)          106.8961         0.324215   
     78. A(C   8,C   7,H  25)          112.2101         0.326656   
     79. A(C   6,C   7,H  25)          110.4910         0.326548   
     80. A(H  27,C   8,H  28)          107.8160         0.284041   
     81. A(C   9,C   8,H  28)          107.4760         0.324120   
     82. A(C   7,C   8,H  28)          106.2794         0.323656   
     83. A(C   9,C   8,H  27)          112.2331         0.327761   
     84. A(C   7,C   8,H  27)          109.2383         0.327291   
     85. A(C   7,C   8,C   9)          113.4595         0.376257   
     86. A(H  30,C   9,H  31)          106.4799         0.284788   
     87. A(H  29,C   9,H  31)          105.0252         0.282449   
     88. A(C   8,C   9,H  31)          107.8868         0.324989   
     89. A(H  29,C   9,H  30)          109.3825         0.284748   
     90. A(C   8,C   9,H  30)          114.2547         0.327793   
     91. A(C   8,C   9,H  29)          113.1650         0.324941   
     92. D(C   2,C   1,C   0,H  11)     40.8257         0.012153   
     93. D(C   2,C   1,C   0,H  12)    -86.4578         0.012153   
     94. D(H  13,C   1,C   0,H  11)    -76.0677         0.012153   
     95. D(H  14,C   1,C   0,H  11)    166.6810         0.012153   
     96. D(H  13,C   1,C   0,H  10)     41.5928         0.012153   
     97. D(C   2,C   1,C   0,H  10)    158.4862         0.012153   
     98. D(H  14,C   1,C   0,H  12)     39.3975         0.012153   
     99. D(H  14,C   1,C   0,H  10)    -75.6584         0.012153   
    100. D(H  13,C   1,C   0,H  12)    156.6488         0.012153   
    101. D(C   3,C   2,C   1,H  13)    172.7784         0.013110   
    102. D(C   3,C   2,C   1,H  14)    -66.4549         0.013110   
    103. D(H  15,C   2,C   1,H  13)     55.2392         0.013110   
    104. D(H  15,C   2,C   1,H  14)    176.0059         0.013110   
    105. D(C   3,C   2,C   1,C   0)     56.6841         0.013110   
    106. D(H  16,C   2,C   1,H  13)    -61.2760         0.013110   
    107. D(H  16,C   2,C   1,H  14)     59.4908         0.013110   
    108. D(H  16,C   2,C   1,C   0)   -177.3702         0.013110   
    109. D(H  15,C   2,C   1,C   0)    -60.8551         0.013110   
    110. D(H  18,C   3,C   2,C   1)     51.6465         0.013519   
    111. D(H  17,C   3,C   2,H  16)    170.1331         0.013519   
    112. D(H  18,C   3,C   2,H  15)    168.7422         0.013519   
    113. D(H  17,C   3,C   2,H  15)     49.5889         0.013519   
    114. D(C   4,C   3,C   2,H  15)    -65.5571         0.013519   
    115. D(H  17,C   3,C   2,C   1)    -67.5068         0.013519   
    116. D(H  18,C   3,C   2,H  16)    -70.7136         0.013519   
    117. D(C   4,C   3,C   2,H  16)     54.9871         0.013519   
    118. D(C   4,C   3,C   2,C   1)    177.3472         0.013519   
    119. D(C   5,C   4,C   3,H  18)    -59.9304         0.013198   
    120. D(C   5,C   4,C   3,H  17)     58.5499         0.013198   
    121. D(H  19,C   4,C   3,C   2)    -62.8005         0.013198   
    122. D(C   5,C   4,C   3,C   2)    174.0729         0.013198   
    123. D(H  20,C   4,C   3,H  18)   -178.0163         0.013198   
    124. D(H  20,C   4,C   3,H  17)    -59.5360         0.013198   
    125. D(H  20,C   4,C   3,C   2)     55.9871         0.013198   
    126. D(H  19,C   4,C   3,H  18)     63.1962         0.013198   
    127. D(H  19,C   4,C   3,H  17)   -178.3235         0.013198   
    128. D(H  22,C   5,C   4,H  20)     99.7098         0.013548   
    129. D(H  22,C   5,C   4,H  19)   -140.2064         0.013548   
    130. D(H  22,C   5,C   4,C   3)    -18.1850         0.013548   
    131. D(H  21,C   5,C   4,H  20)    -21.9247         0.013548   
    132. D(H  21,C   5,C   4,H  19)     98.1591         0.013548   
    133. D(H  21,C   5,C   4,C   3)   -139.8195         0.013548   
    134. D(C   6,C   5,C   4,H  20)   -140.2457         0.013548   
    135. D(C   6,C   5,C   4,H  19)    -20.1619         0.013548   
    136. D(C   6,C   5,C   4,C   3)    101.8595         0.013548   
    137. D(H  24,C   6,C   5,H  22)     48.6340         0.011565   
    138. D(H  24,C   6,C   5,H  21)    161.4479         0.011565   
    139. D(H  24,C   6,C   5,C   4)    -75.9333         0.011565   
    140. D(H  23,C   6,C   5,H  22)    168.3307         0.011565   
    141. D(H  23,C   6,C   5,H  21)    -78.8554         0.011565   
    142. D(H  23,C   6,C   5,C   4)     43.7634         0.011565   
    143. D(C   7,C   6,C   5,H  22)    -66.6085         0.011565   
    144. D(C   7,C   6,C   5,H  21)     46.2054         0.011565   
    145. D(C   7,C   6,C   5,C   4)    168.8242         0.011565   
    146. D(H  26,C   7,C   6,H  23)   -175.8073         0.013372   
    147. D(H  26,C   7,C   6,C   5)     60.1890         0.013372   
    148. D(H  25,C   7,C   6,H  24)   -167.9245         0.013372   
    149. D(H  25,C   7,C   6,H  23)     69.4129         0.013372   
    150. D(H  25,C   7,C   6,C   5)    -54.5908         0.013372   
    151. D(C   8,C   7,C   6,H  24)     65.0510         0.013372   
    152. D(C   8,C   7,C   6,H  23)    -57.6116         0.013372   
    153. D(H  26,C   7,C   6,H  24)    -53.1448         0.013372   
    154. D(C   8,C   7,C   6,C   5)    178.3847         0.013372   
    155. D(H  28,C   8,C   7,H  26)    -44.8126         0.013424   
    156. D(H  28,C   8,C   7,C   6)   -162.7193         0.013424   
    157. D(H  27,C   8,C   7,H  26)     71.2599         0.013424   
    158. D(H  27,C   8,C   7,H  25)   -172.7655         0.013424   
    159. D(H  27,C   8,C   7,C   6)    -46.6468         0.013424   
    160. D(C   9,C   8,C   7,H  26)   -162.7024         0.013424   
    161. D(H  28,C   8,C   7,H  25)     71.1620         0.013424   
    162. D(C   9,C   8,C   7,H  25)    -46.7279         0.013424   
    163. D(C   9,C   8,C   7,C   6)     79.3908         0.013424   
    164. D(H  31,C   9,C   8,H  28)     97.0086         0.013654   
    165. D(H  31,C   9,C   8,H  27)    -21.3655         0.013654   
    166. D(H  31,C   9,C   8,C   7)   -145.7977         0.013654   
    167. D(H  30,C   9,C   8,H  28)   -144.8038         0.013654   
    168. D(H  30,C   9,C   8,H  27)     96.8221         0.013654   
    169. D(H  30,C   9,C   8,C   7)    -27.6101         0.013654   
    170. D(H  29,C   9,C   8,H  28)    -18.7381         0.013654   
    171. D(H  29,C   9,C   8,H  27)   -137.1122         0.013654   
    172. D(H  29,C   9,C   8,C   7)     98.4556         0.013654   
    -----------------------------------------------------------------

Number of atoms                         .... 32
Number of degrees of freedom            .... 172

Time needed for optimization step       :     3.50 sec

         *************************************************************
         *                GEOMETRY OPTIMIZATION CYCLE   1            *
         *************************************************************
---------------------------------
CARTESIAN COORDINATES (ANGSTROEM)
---------------------------------
  C     -4.582220    0.591507    0.615133
  C     -4.075553   -0.832754    0.748502
  C     -2.893188   -1.069028   -0.155279
  C     -1.768179   -0.106348    0.100227
  C     -0.609132   -0.453605   -0.796338
  C      0.518858    0.535736   -0.721412
  C      1.673990    0.030581    0.135944
  C      2.821875    0.973189   -0.101000
  C      4.046102    0.640610    0.706035
  C      4.856324   -0.482871    0.127378
  H     -5.643545    0.602700    0.970320
  H     -4.581708    0.934186   -0.432682
  H     -4.007009    1.223791    1.304400
  H     -4.899258   -1.492160    0.406459
  H     -3.870120   -1.040546    1.809029
  H     -3.247488   -0.897084   -1.193582
  H     -2.605480   -2.126519   -0.047559
  H     -2.121583    0.905582   -0.211387
  H     -1.475948   -0.058535    1.168084
  H     -0.252099   -1.470528   -0.532224
  H     -0.992375   -0.441386   -1.843811
  H      0.970574    0.747858   -1.723890
  H      0.227261    1.511655   -0.288475
  H      1.913278   -1.021088   -0.070395
  H      1.335581    0.142415    1.196748
  H      3.041901    1.050847   -1.180646
  H      2.479221    1.987663    0.215019
  H      3.751438    0.447474    1.749525
  H      4.687892    1.558243    0.695475
  H      5.730320   -0.131187   -0.470226
  H      4.272192   -1.201997   -0.467846
  H      5.298078   -1.058402    0.974581

----------------------------
CARTESIAN COORDINATES (A.U.)
----------------------------
  NO LB      ZA    FRAG     MASS         X           Y           Z
   0 C     6.0000    0    12.011   -8.659141    1.117786    1.162433
   1 C     6.0000    0    12.011   -7.701679   -1.573677    1.414464
   2 C     6.0000    0    12.011   -5.467333   -2.020170   -0.293435
   3 C     6.0000    0    12.011   -3.341374   -0.200969    0.189402
   4 C     6.0000    0    12.011   -1.151093   -0.857189   -1.504861
   5 C     6.0000    0    12.011    0.980500    1.012394   -1.363271
   6 C     6.0000    0    12.011    3.163383    0.057790    0.256897
   7 C     6.0000    0    12.011    5.332571    1.839061   -0.190862
   8 C     6.0000    0    12.011    7.646025    1.210577    1.334213
   9 C     6.0000    0    12.011    9.177122   -0.912494    0.240710
  10 H     1.0000    0     1.008  -10.664754    1.138938    1.833639
  11 H     1.0000    0     1.008   -8.658173    1.765356   -0.817650
  12 H     1.0000    0     1.008   -7.572150    2.312630    2.464959
  13 H     1.0000    0     1.008   -9.258256   -2.819774    0.768096
  14 H     1.0000    0     1.008   -7.313467   -1.966347    3.418569
  15 H     1.0000    0     1.008   -6.136863   -1.695243   -2.255543
  16 H     1.0000    0     1.008   -4.923644   -4.018539   -0.089873
  17 H     1.0000    0     1.008   -4.009211    1.711302   -0.399464
  18 H     1.0000    0     1.008   -2.789138   -0.110615    2.207359
  19 H     1.0000    0     1.008   -0.476398   -2.778895   -1.005758
  20 H     1.0000    0     1.008   -1.875317   -0.834099   -3.484298
  21 H     1.0000    0     1.008    1.834119    1.413247   -3.257680
  22 H     1.0000    0     1.008    0.429461    2.856614   -0.545139
  23 H     1.0000    0     1.008    3.615571   -1.929577   -0.133027
  24 H     1.0000    0     1.008    2.523882    0.269125    2.261526
  25 H     1.0000    0     1.008    5.748360    1.985813   -2.231098
  26 H     1.0000    0     1.008    4.685049    3.756139    0.406327
  27 H     1.0000    0     1.008    7.089190    0.845603    3.306123
  28 H     1.0000    0     1.008    8.858832    2.944653    1.314257
  29 H     1.0000    0     1.008   10.828735   -0.247908   -0.888598
  30 H     1.0000    0     1.008    8.073273   -2.271445   -0.884101
  31 H     1.0000    0     1.008   10.011916   -2.000090    1.841691

--------------------------------
INTERNAL COORDINATES (ANGSTROEM)
--------------------------------
 C      0   0   0     0.000000000000     0.00000000     0.00000000
 C      1   0   0     1.517569812289     0.00000000     0.00000000
 C      2   1   0     1.506861802642   110.88036282     0.00000000
 C      3   2   1     1.502558267927   112.64639158    56.68411967
 C      4   3   2     1.505923693778   109.10414803   177.34717206
 C      5   4   3     1.502255291173   113.35037336   174.07291350
 C      6   5   4     1.524654328753   112.25488319   101.85947716
 C      7   6   5     1.504091843614   106.37862062   168.82415110
 C      8   7   6     1.503544488865   113.46683582   178.38472664
 C      9   8   7     1.501170599997   113.45954017    79.39079578
 H      1   2   3     1.119238063972   107.34280634   158.48624029
 H      1   2   3     1.102427064894   112.03067449    40.82567938
 H      1   2   3     1.098061814501   108.08059318   273.54219574
 H      2   1   3     1.109188718708   106.43360076   243.10660657
 H      2   1   3     1.100044431140   108.92654695   125.85532081
 H      3   2   1     1.110480233478   106.62883101   299.14489100
 H      3   2   1     1.101211472309   107.27187409   182.62975580
 H      4   3   2     1.116243699696   107.23558625   292.49315708
 H      4   3   2     1.108153244267   112.88948115    51.64649876
 H      5   4   3     1.109667137485   108.49698892   297.19952572
 H      5   4   3     1.115447975810   106.98458656    55.98705285
 H      6   5   4     1.119823748643   112.51869122   220.18046538
 H      6   5   4     1.106743489224   113.72836197   341.81498030
 H      7   6   5     1.098108471612   112.13217313    43.76339314
 H      7   6   5     1.119076682472   105.71347342   284.06667026
 H      8   7   6     1.104571270202   110.49097519   305.40922934
 H      8   7   6     1.116439549977   106.89607606    60.18898876
 H      9   8   7     1.101362686626   109.23826565   313.35315459
 H      9   8   7     1.119846525373   106.27941606   197.28067070
 H     10   9   8     1.115652806516   113.16502296    98.45560805
 H     10   9   8     1.101201165762   114.25466714   332.38987961
 H     10   9   8     1.115408199578   107.88682349   214.20225057

---------------------------
INTERNAL COORDINATES (A.U.)
---------------------------
 C      0   0   0     0.000000000000     0.00000000     0.00000000
 C      1   0   0     2.867791334333     0.00000000     0.00000000
 C      2   1   0     2.847556128661   110.88036282     0.00000000
 C      3   2   1     2.839423626642   112.64639158    56.68411967
 C      4   3   2     2.845783359824   109.10414803   177.34717206
 C      5   4   3     2.838851083551   113.35037336   174.07291350
 C      6   5   4     2.881179130241   112.25488319   101.85947716
 C      7   6   5     2.842321664694   106.37862062   168.82415110
 C      8   7   6     2.841287314121   113.46683582   178.38472664
 C      9   8   7     2.836801314288   113.45954017    79.39079578
 H      1   2   3     2.115053419567   107.34280634   158.48624029
 H      1   2   3     2.083285235272   112.03067449    40.82567938
 H      1   2   3     2.075036107524   108.08059318   273.54219574
 H      2   1   3     2.096062909194   106.43360076   243.10660657
 H      2   1   3     2.078782710000   108.92654695   125.85532081
 H      3   2   1     2.098503518406   106.62883101   299.14489100
 H      3   2   1     2.080988098196   107.27187409   182.62975580
 H      4   3   2     2.109394891141   107.23558625   292.49315708
 H      4   3   2     2.094106146081   112.88948115    51.64649876
 H      5   4   3     2.096966989659   108.49698892   297.19952572
 H      5   4   3     2.107891190918   106.98458656    55.98705285
 H      6   5   4     2.116160203196   112.51869122   220.18046538
 H      6   5   4     2.091442095133   113.72836197   341.81498030
 H      7   6   5     2.075124276685   112.13217313    43.76339314
 H      7   6   5     2.114748452730   105.71347342   284.06667026
 H      8   7   6     2.087337196080   110.49097519   305.40922934
 H      8   7   6     2.109764994535   106.89607606    60.18898876
 H      9   8   7     2.081273851843   109.23826565   313.35315459
 H      9   8   7     2.116203244977   106.27941606   197.28067070
 H     10   9   8     2.108278264857   113.16502296    98.45560805
 H     10   9   8     2.080968621645   114.25466714   332.38987961
 H     10   9   8     2.107816024733   107.88682349   214.20225057

---------------------
BASIS SET INFORMATION
---------------------
There are 2 groups of distinct atoms

 Group   1 Type C   : 7s4p1d contracted to 3s2p1d pattern {511/31/1}
 Group   2 Type H   : 4s contracted to 2s pattern {31}

Atom   0C    basis set group =>   1
Atom   1C    basis set group =>   1
Atom   2C    basis set group =>   1
Atom   3C    basis set group =>   1
Atom   4C    basis set group =>   1
Atom   5C    basis set group =>   1
Atom   6C    basis set group =>   1
Atom   7C    basis set group =>   1
Atom   8C    basis set group =>   1
Atom   9C    basis set group =>   1
Atom  10H    basis set group =>   2
Atom  11H    basis set group =>   2
Atom  12H    basis set group =>   2
Atom  13H    basis set group =>   2
Atom  14H    basis set group =>   2
Atom  15H    basis set group =>   2
Atom  16H    basis set group =>   2
Atom  17H    basis set group =>   2
Atom  18H    basis set group =>   2
Atom  19H    basis set group =>   2
Atom  20H    basis set group =>   2
Atom  21H    basis set group =>   2
Atom  22H    basis set group =>   2
Atom  23H    basis set group =>   2
Atom  24H    basis set group =>   2
Atom  25H    basis set group =>   2
Atom  26H    basis set group =>   2
Atom  27H    basis set group =>   2
Atom  28H    basis set group =>   2
Atom  29H    basis set group =>   2
Atom  30H    basis set group =>   2
Atom  31H    basis set group =>   2
---------------------------------
AUXILIARY/J BASIS SET INFORMATION
---------------------------------
There are 2 groups of distinct atoms

 Group   1 Type C   : 12s5p4d2f1g contracted to 6s4p3d1f1g pattern {711111/2111/211/2/1}
 Group   2 Type H   : 5s2p1d contracted to 3s1p1d pattern {311/2/1}

Atom   0C    basis set group =>   1
Atom   1C    basis set group =>   1
Atom   2C    basis set group =>   1
Atom   3C    basis set group =>   1
Atom   4C    basis set group =>   1
Atom   5C    basis set group =>   1
Atom   6C    basis set group =>   1
Atom   7C    basis set group =>   1
Atom   8C    basis set group =>   1
Atom   9C    basis set group =>   1
Atom  10H    basis set group =>   2
Atom  11H    basis set group =>   2
Atom  12H    basis set group =>   2
Atom  13H    basis set group =>   2
Atom  14H    basis set group =>   2
Atom  15H    basis set group =>   2
Atom  16H    basis set group =>   2
Atom  17H    basis set group =>   2
Atom  18H    basis set group =>   2
Atom  19H    basis set group =>   2
Atom  20H    basis set group =>   2
Atom  21H    basis set group =>   2
Atom  22H    basis set group =>   2
Atom  23H    basis set group =>   2
Atom  24H    basis set group =>   2
Atom  25H    basis set group =>   2
Atom  26H    basis set group =>   2
Atom  27H    basis set group =>   2
Atom  28H    basis set group =>   2
Atom  29H    basis set group =>   2
Atom  30H    basis set group =>   2
Atom  31H    basis set group =>   2
------------------------------------------------------------------------------
                           ORCA GTO INTEGRAL CALCULATION
------------------------------------------------------------------------------

                         BASIS SET STATISTICS AND STARTUP INFO

 # of primitive gaussian shells          ...  208
 # of primitive gaussian functions       ...  328
 # of contracted shells                  ...  104
 # of contracted basis functions         ...  184
 Highest angular momentum                ...    2
 Maximum contraction depth               ...    5
 Integral package used                   ... LIBINT
 Integral threshhold            Thresh   ...  1.000e-12
 Primitive cut-off              TCut     ...  1.000e-14


------------------------------ INTEGRAL EVALUATION ----------------------------


 * One electron integrals 
 Pre-screening matrix                    ... done
 Shell pair data                         ... done (   0.001 sec)

-------------------------------------------------------------------------------
                                 ORCA SCF
-------------------------------------------------------------------------------

------------
SCF SETTINGS
------------
Hamiltonian:
 Density Functional     Method          .... DFT(GTOs)
 Exchange Functional    Exchange        .... B88
   X-Alpha parameter    XAlpha          ....  0.666667
   Becke's b parameter  XBeta           ....  0.004200
 Correlation Functional Correlation     .... LYP
 LDA part of GGA corr.  LDAOpt          .... VWN-5
 Gradients option       PostSCFGGA      .... off
 Hybrid DFT is turned on
   Fraction HF Exchange ScalHFX         ....  0.200000
   Scaling of DF-GGA-X  ScalDFX         ....  0.720000
   Scaling of DF-GGA-C  ScalDFC         ....  0.810000
   Scaling of DF-LDA-C  ScalLDAC        ....  1.000000
   Perturbative correction              ....  0.000000
   Density functional embedding theory  .... OFF
   NL short-range parameter             ....  4.800000


General Settings:
 Integral files         IntName         .... orca1
 Hartree-Fock type      HFTyp           .... UHF
 Total Charge           Charge          ....    0
 Multiplicity           Mult            ....    1
 Number of Electrons    NEL             ....   82
 Basis Dimension        Dim             ....  184
 Nuclear Repulsion      ENuc            ....    540.2716217686 Eh

Convergence Acceleration:
 DIIS                   CNVDIIS         .... on
   Start iteration      DIISMaxIt       ....    12
   Startup error        DIISStart       ....  0.200000
   # of expansion vecs  DIISMaxEq       ....     5
   Bias factor          DIISBfac        ....   1.050
   Max. coefficient     DIISMaxC        ....  10.000
 Newton-Raphson         CNVNR           .... off
 SOSCF                  CNVSOSCF        .... off
 Level Shifting         CNVShift        .... on
   Level shift para.    LevelShift      ....    0.2500
   Turn off err/grad.   ShiftErr        ....    0.0010
 Zerner damping         CNVZerner       .... off
 Static damping         CNVDamp         .... on
   Fraction old density DampFac         ....    0.7000
   Max. Damping (<1)    DampMax         ....    0.9800
   Min. Damping (>=0)   DampMin         ....    0.0000
   Turn off err/grad.   DampErr         ....    0.1000
 Fernandez-Rico         CNVRico         .... off

SCF Procedure:
 Maximum # iterations   MaxIter         ....   500
 SCF integral mode      SCFMode         .... Direct
   Integral package                     .... LIBINT
 Reset frequency        DirectResetFreq ....    20
 Integral Threshold     Thresh          ....  1.000e-12 Eh
 Primitive CutOff       TCut            ....  1.000e-14 Eh

Convergence Tolerance:
 Convergence Check Mode ConvCheckMode   .... Total+1el-Energy
 Convergence forced     ConvForced      .... 0
 Energy Change          TolE            ....  1.000e-09 Eh
 1-El. energy change                    ....  1.000e-06 Eh
 DIIS Error             TolErr          ....  1.000e-08


Diagonalization of the overlap matrix:
Smallest eigenvalue                        ... 9.944e-04
Time for diagonalization                   ...    0.094 sec
Threshold for overlap eigenvalues          ... 1.000e-08
Number of eigenvalues below threshold      ... 0
Time for construction of square roots      ...    6.111 sec
Total time needed                          ...    6.206 sec

-------------------
DFT GRID GENERATION
-------------------

General Integration Accuracy     IntAcc      ...  4.340
Radial Grid Type                 RadialGrid  ... Gauss-Chebyshev
Angular Grid (max. acc.)         AngularGrid ... Lebedev-110
Angular grid pruning method      GridPruning ... 3 (G Style)
Weight generation scheme         WeightScheme... Becke
Basis function cutoff            BFCut       ...    1.0000e-12
Integration weight cutoff        WCut        ...    1.0000e-14
Grids for H and He will be reduced by one unit

# of grid points (after initial pruning)     ...  34028 (   0.0 sec)
# of grid points (after weights+screening)   ...  30693 (   0.2 sec)
nearest neighbour list constructed           ...    0.0 sec
Grid point re-assignment to atoms done       ...    0.0 sec
Grid point division into batches done        ...    0.0 sec
Reduced shell lists constructed in    0.2 sec

Total number of grid points                  ...    30693
Total number of batches                      ...      496
Average number of points per batch           ...       61
Average number of grid points per atom       ...      959
Average number of shells per batch           ...    66.03 (63.49%)
Average number of basis functions per batch  ...   112.84 (61.33%)
Average number of large shells per batch     ...    49.36 (74.75%)
Average number of large basis fcns per batch ...    85.11 (75.42%)
Maximum spatial batch extension              ...  20.05, 21.98, 21.29 au
Average spatial batch extension              ...   3.11,  3.54,  3.52 au

Time for grid setup =    7.284 sec

------------------------------
INITIAL GUESS: MODEL POTENTIAL
------------------------------
Loading Hartree-Fock densities                     ... done
Calculating cut-offs                               ... done
Setting up the integral package                    ... done
Initializing the effective Hamiltonian             ... done
Starting the Coulomb interaction                   ... done (   0.2 sec)
Reading the grid                                   ... done
Mapping shells                                     ... done
Starting the XC term evaluation                    ... done (   0.3 sec)
  promolecular density results
     # of electrons  =     81.984568466
     EX              =    -57.989136442
     EC              =     -2.609535717
     EX+EC           =    -60.598672158
Transforming the Hamiltonian                       ... done (   0.0 sec)
Diagonalizing the Hamiltonian                      ... done (   0.0 sec)
Back transforming the eigenvectors                 ... done (   0.0 sec)
Now organizing SCF variables                       ... done
                      ------------------
                      INITIAL GUESS DONE (   8.7 sec)
                      ------------------
--------------
SCF ITERATIONS
--------------
ITER       Energy         Delta-E        Max-DP      RMS-DP      [F,P]     Damp
               ***  Starting incremental Fock matrix formation  ***
  0   -393.2776463091   0.000000000000 0.04240149  0.00143452  0.1758146 0.7000
  1   -393.4633816910  -0.185735381891 0.02603465  0.00102196  0.0911352 0.7000
                               ***Turning on DIIS***
  2   -393.5374361040  -0.074054413067 0.03584511  0.00168240  0.0339020 0.0000
  3   -393.6374005618  -0.099964457739 0.01728927  0.00069100  0.0495513 0.0000
  4   -393.6705153013  -0.033114739527 0.00371833  0.00021115  0.0104552 0.0000
  5   -393.6721830444  -0.001667743077 0.00124635  0.00007324  0.0020931 0.0000
  6   -393.6722818422  -0.000098797867 0.00064441  0.00003890  0.0007244 0.0000
  7   -393.6722897801  -0.000007937863 0.00023634  0.00000483  0.0004202 0.0000
  8   -393.6722905687  -0.000000788593 0.00003585  0.00000117  0.0000592 0.0000
  9   -393.6722906008  -0.000000032145 0.00001953  0.00000043  0.0000233 0.0000
 10   -393.6722906048  -0.000000003952 0.00000567  0.00000013  0.0000104 0.0000
 11   -393.6722906054  -0.000000000577 0.00000080  0.00000004  0.0000017 0.0000
 12   -393.6722906054  -0.000000000024 0.00000034  0.00000001  0.0000006 0.0000
 13   -393.6722906054   0.000000000041 0.00000016  0.00000000  0.0000002 0.0000
                 **** Energy Check signals convergence ****

 Fermi smearing  (ALPHA): E(HOMO(Eh)) = -0.285355 MUE = -0.114402 gap=   9.304 eV
 Fermi smearing   (BETA): E(HOMO(Eh)) = -0.285355 MUE = -0.114402 gap=   9.304 eV

N_FOD(alpha) =  0.000000
 N_FOD(beta) =  0.000000
       N_FOD =  0.000000

               *****************************************************
               *                     SUCCESS                       *
               *           SCF CONVERGED AFTER  14 CYCLES          *
               *****************************************************

Setting up the final grid:

General Integration Accuracy     IntAcc      ...  4.670
Radial Grid Type                 RadialGrid  ... Gauss-Chebyshev
Angular Grid (max. acc.)         AngularGrid ... Lebedev-302
Angular grid pruning method      GridPruning ... 3 (G Style)
Weight generation scheme         WeightScheme... Becke
Basis function cutoff            BFCut       ...    1.0000e-12
Integration weight cutoff        WCut        ...    1.0000e-14
Grids for H and He will be reduced by one unit

# of grid points (after initial pruning)     ... 136788 (   0.1 sec)
# of grid points (after weights+screening)   ... 120999 (   0.7 sec)
nearest neighbour list constructed           ...    0.0 sec
Grid point re-assignment to atoms done       ...    0.0 sec
Grid point division into batches done        ...    0.3 sec
Reduced shell lists constructed in    1.0 sec

Total number of grid points                  ...   120999
Total number of batches                      ...     1905
Average number of points per batch           ...       63
Average number of grid points per atom       ...     3781
Average number of shells per batch           ...    61.22 (58.86%)
Average number of basis functions per batch  ...   104.26 (56.66%)
Average number of large shells per batch     ...    45.27 (73.95%)
Average number of large basis fcns per batch ...    77.71 (74.53%)
Maximum spatial batch extension              ...  20.14, 26.86, 20.64 au
Average spatial batch extension              ...   2.14,  2.35,  2.32 au

Final grid set up in    3.4 sec
Final integration                            ... done (  16.7 sec)
Change in XC energy                          ...     0.000093988
Integrated number of electrons               ...    82.000035886
Previous integrated no of electrons          ...    82.000350715

----------------
TOTAL SCF ENERGY
----------------

Total Energy       :         -393.67219662 Eh          -10712.36508 eV

Components:
Nuclear Repulsion  :          540.27162177 Eh           14701.53824 eV
Electronic Energy  :         -933.94381839 Eh          -25413.90332 eV
One Electron Energy:        -1599.47007954 Eh          -43523.79357 eV
Two Electron Energy:          665.52626116 Eh           18109.89026 eV

Virial components:
Potential Energy   :         -783.42461523 Eh          -21318.06757 eV
Kinetic Energy     :          389.75241862 Eh           10605.70249 eV
Virial Ratio       :            2.01005710


DFT components:
N(Alpha)           :       41.000017942979 electrons
N(Beta)            :       41.000017942979 electrons
N(Total)           :       82.000035885958 electrons
E(X)               :      -47.200573196375 Eh       
E(C)               :       -3.089825650137 Eh       
E(XC)              :      -50.290398846512 Eh       
DFET-embed. en.    :        0.000000000000 Eh       

---------------
SCF CONVERGENCE
---------------

  Last Energy change         ...   -4.6498e-11  Tolerance :   1.0000e-09
  Last MAX-Density change    ...    4.0411e-08  Tolerance :   1.0000e-08
  Last RMS-Density change    ...    8.1770e-10  Tolerance :   1.0000e-09
  Last DIIS Error            ...    6.6337e-08  Tolerance :   1.0000e-08

             **** THE GBW FILE WAS UPDATED (orca1.gbw) ****
             **** DENSITY FILE WAS UPDATED (orca1.scfp) ****
             **** ENERGY FILE WAS UPDATED (orca1.en.tmp) ****
             **** THE GBW FILE WAS UPDATED (orca1.gbw) ****
             **** DENSITY FILE WAS UPDATED (orca1.scfp) ****
----------------
ORBITAL ENERGIES
----------------
                 SPIN UP ORBITALS
  NO   OCC          E(Eh)            E(eV) 
   0   1.0000     -10.165504      -276.6174 
   1   1.0000     -10.165497      -276.6172 
   2   1.0000     -10.164905      -276.6011 
   3   1.0000     -10.164507      -276.5903 
   4   1.0000     -10.163849      -276.5724 
   5   1.0000     -10.163542      -276.5640 
   6   1.0000     -10.163316      -276.5579 
   7   1.0000     -10.163181      -276.5542 
   8   1.0000     -10.162634      -276.5393 
   9   1.0000     -10.162256      -276.5290 
  10   1.0000      -0.813133       -22.1265 
  11   1.0000      -0.795956       -21.6591 
  12   1.0000      -0.763860       -20.7857 
  13   1.0000      -0.725207       -19.7339 
  14   1.0000      -0.678627       -18.4664 
  15   1.0000      -0.638072       -17.3628 
  16   1.0000      -0.602761       -16.4020 
  17   1.0000      -0.562662       -15.3108 
  18   1.0000      -0.555029       -15.1031 
  19   1.0000      -0.550743       -14.9865 
  20   1.0000      -0.475449       -12.9376 
  21   1.0000      -0.471528       -12.8309 
  22   1.0000      -0.452925       -12.3247 
  23   1.0000      -0.442876       -12.0513 
  24   1.0000      -0.434470       -11.8225 
  25   1.0000      -0.429184       -11.6787 
  26   1.0000      -0.401680       -10.9303 
  27   1.0000      -0.394136       -10.7250 
  28   1.0000      -0.391272       -10.6470 
  29   1.0000      -0.367154        -9.9908 
  30   1.0000      -0.362636        -9.8678 
  31   1.0000      -0.359494        -9.7823 
  32   1.0000      -0.347849        -9.4654 
  33   1.0000      -0.334033        -9.0895 
  34   1.0000      -0.329266        -8.9598 
  35   1.0000      -0.324904        -8.8411 
  36   1.0000      -0.319193        -8.6857 
  37   1.0000      -0.313838        -8.5400 
  38   1.0000      -0.311458        -8.4752 
  39   1.0000      -0.299532        -8.1507 
  40   1.0000      -0.285355        -7.7649 
  41   0.0000       0.056550         1.5388 
  42   0.0000       0.057373         1.5612 
  43   0.0000       0.072065         1.9610 
  44   0.0000       0.073623         2.0034 
  45   0.0000       0.077387         2.1058 
  46   0.0000       0.089831         2.4444 
  47   0.0000       0.095128         2.5886 
  48   0.0000       0.102151         2.7797 
  49   0.0000       0.116555         3.1716 
  50   0.0000       0.124603         3.3906 
  51   0.0000       0.126763         3.4494 
  52   0.0000       0.138114         3.7583 
  53   0.0000       0.144989         3.9454 
  54   0.0000       0.151065         4.1107 
  55   0.0000       0.153003         4.1634 
  56   0.0000       0.156250         4.2518 
  57   0.0000       0.166055         4.5186 
  58   0.0000       0.174742         4.7550 
  59   0.0000       0.189262         5.1501 
  60   0.0000       0.192973         5.2511 
  61   0.0000       0.205236         5.5847 
  62   0.0000       0.208685         5.6786 
  63   0.0000       0.229651         6.2491 
  64   0.0000       0.230403         6.2696 
  65   0.0000       0.241436         6.5698 
  66   0.0000       0.257774         7.0144 
  67   0.0000       0.265640         7.2284 
  68   0.0000       0.273739         7.4488 
  69   0.0000       0.288303         7.8451 
  70   0.0000       0.292064         7.9475 
  71   0.0000       0.326139         8.8747 
  72   0.0000       0.409752        11.1499 
  73   0.0000       0.425836        11.5876 
  74   0.0000       0.431791        11.7496 
  75   0.0000       0.443082        12.0569 
  76   0.0000       0.445461        12.1216 
  77   0.0000       0.456963        12.4346 
  78   0.0000       0.468078        12.7371 
  79   0.0000       0.468381        12.7453 
  80   0.0000       0.482836        13.1386 
  81   0.0000       0.496521        13.5110 
  82   0.0000       0.519793        14.1443 
  83   0.0000       0.525365        14.2959 
  84   0.0000       0.562583        15.3087 
  85   0.0000       0.583885        15.8883 
  86   0.0000       0.626019        17.0348 
  87   0.0000       0.636906        17.3311 
  88   0.0000       0.643232        17.5032 
  89   0.0000       0.647151        17.6099 
  90   0.0000       0.655704        17.8426 
  91   0.0000       0.658105        17.9079 
  92   0.0000       0.662080        18.0161 
  93   0.0000       0.665214        18.1014 
  94   0.0000       0.673208        18.3189 
  95   0.0000       0.675043        18.3689 
  96   0.0000       0.681637        18.5483 
  97   0.0000       0.690567        18.7913 
  98   0.0000       0.696061        18.9408 
  99   0.0000       0.700766        19.0688 
 100   0.0000       0.704303        19.1651 
 101   0.0000       0.708558        19.2808 
 102   0.0000       0.711928        19.3725 
 103   0.0000       0.713599        19.4180 
 104   0.0000       0.716905        19.5080 
 105   0.0000       0.720481        19.6053 
 106   0.0000       0.722456        19.6590 
 107   0.0000       0.724026        19.7018 
 108   0.0000       0.728332        19.8189 
 109   0.0000       0.736153        20.0317 
 110   0.0000       0.738028        20.0828 
 111   0.0000       0.741602        20.1800 
 112   0.0000       0.748486        20.3673 
 113   0.0000       0.750505        20.4223 
 114   0.0000       0.760165        20.6851 
 115   0.0000       0.767210        20.8768 
 116   0.0000       0.770260        20.9598 
 117   0.0000       0.777746        21.1635 
 118   0.0000       0.781405        21.2631 
 119   0.0000       0.794203        21.6114 
 120   0.0000       0.820419        22.3247 
 121   0.0000       0.861334        23.4381 
 122   0.0000       0.890436        24.2300 
 123   0.0000       0.945470        25.7276 
 124   0.0000       0.977522        26.5997 
 125   0.0000       1.032573        28.0977 
 126   0.0000       1.062282        28.9061 
 127   0.0000       1.070727        29.1360 
 128   0.0000       1.079411        29.3723 
 129   0.0000       1.124986        30.6124 
 130   0.0000       1.153245        31.3814 
 131   0.0000       1.163417        31.6582 
 132   0.0000       1.210256        32.9327 
 133   0.0000       1.231039        33.4983 
 134   0.0000       1.396428        37.9987 
 135   0.0000       1.433598        39.0102 
 136   0.0000       1.485621        40.4258 
 137   0.0000       1.522178        41.4206 
 138   0.0000       1.629177        44.3322 
 139   0.0000       1.634944        44.4891 
 140   0.0000       1.677650        45.6512 
 141   0.0000       1.702632        46.3310 
 142   0.0000       1.766079        48.0575 
 143   0.0000       1.809952        49.2513 
 144   0.0000       1.816795        49.4375 
 145   0.0000       1.855180        50.4820 
 146   0.0000       1.869516        50.8721 
 147   0.0000       1.894857        51.5617 
 148   0.0000       1.910007        51.9739 
 149   0.0000       1.916704        52.1562 
 150   0.0000       1.932871        52.5961 
 151   0.0000       1.934894        52.6512 
 152   0.0000       1.963364        53.4259 
 153   0.0000       1.977872        53.8206 
 154   0.0000       1.990359        54.1604 
 155   0.0000       2.009949        54.6935 
 156   0.0000       2.039480        55.4971 
 157   0.0000       2.044181        55.6250 
 158   0.0000       2.060340        56.0647 
 159   0.0000       2.099597        57.1329 
 160   0.0000       2.122329        57.7515 
 161   0.0000       2.137797        58.1724 
 162   0.0000       2.150213        58.5103 
 163   0.0000       2.200147        59.8690 
 164   0.0000       2.222464        60.4763 
 165   0.0000       2.233731        60.7829 
 166   0.0000       2.259574        61.4861 
 167   0.0000       2.287069        62.2343 
 168   0.0000       2.304334        62.7041 
 169   0.0000       2.323800        63.2338 
 170   0.0000       2.359445        64.2038 
 171   0.0000       2.368446        64.4487 
 172   0.0000       2.397918        65.2507 
 173   0.0000       2.435867        66.2833 
 174   0.0000       2.499735        68.0212 
 175   0.0000       2.514401        68.4203 
 176   0.0000       2.562259        69.7226 
 177   0.0000       2.575645        70.0869 
 178   0.0000       2.625911        71.4547 
 179   0.0000       2.631901        71.6177 
 180   0.0000       2.700888        73.4949 
 181   0.0000       2.782008        75.7023 
 182   0.0000       2.821476        76.7763 
 183   0.0000       2.856001        77.7157 

                 SPIN DOWN ORBITALS
  NO   OCC          E(Eh)            E(eV) 
   0   1.0000     -10.165504      -276.6174 
   1   1.0000     -10.165497      -276.6172 
   2   1.0000     -10.164905      -276.6011 
   3   1.0000     -10.164507      -276.5903 
   4   1.0000     -10.163849      -276.5724 
   5   1.0000     -10.163542      -276.5640 
   6   1.0000     -10.163316      -276.5579 
   7   1.0000     -10.163181      -276.5542 
   8   1.0000     -10.162634      -276.5393 
   9   1.0000     -10.162256      -276.5290 
  10   1.0000      -0.813133       -22.1265 
  11   1.0000      -0.795956       -21.6591 
  12   1.0000      -0.763860       -20.7857 
  13   1.0000      -0.725207       -19.7339 
  14   1.0000      -0.678627       -18.4664 
  15   1.0000      -0.638072       -17.3628 
  16   1.0000      -0.602761       -16.4020 
  17   1.0000      -0.562662       -15.3108 
  18   1.0000      -0.555029       -15.1031 
  19   1.0000      -0.550743       -14.9865 
  20   1.0000      -0.475449       -12.9376 
  21   1.0000      -0.471528       -12.8309 
  22   1.0000      -0.452925       -12.3247 
  23   1.0000      -0.442876       -12.0513 
  24   1.0000      -0.434470       -11.8225 
  25   1.0000      -0.429184       -11.6787 
  26   1.0000      -0.401680       -10.9303 
  27   1.0000      -0.394136       -10.7250 
  28   1.0000      -0.391272       -10.6470 
  29   1.0000      -0.367154        -9.9908 
  30   1.0000      -0.362636        -9.8678 
  31   1.0000      -0.359494        -9.7823 
  32   1.0000      -0.347849        -9.4654 
  33   1.0000      -0.334033        -9.0895 
  34   1.0000      -0.329266        -8.9598 
  35   1.0000      -0.324904        -8.8411 
  36   1.0000      -0.319193        -8.6857 
  37   1.0000      -0.313838        -8.5400 
  38   1.0000      -0.311458        -8.4752 
  39   1.0000      -0.299532        -8.1507 
  40   1.0000      -0.285355        -7.7649 
  41   0.0000       0.056550         1.5388 
  42   0.0000       0.057373         1.5612 
  43   0.0000       0.072065         1.9610 
  44   0.0000       0.073623         2.0034 
  45   0.0000       0.077387         2.1058 
  46   0.0000       0.089831         2.4444 
  47   0.0000       0.095128         2.5886 
  48   0.0000       0.102151         2.7797 
  49   0.0000       0.116555         3.1716 
  50   0.0000       0.124603         3.3906 
  51   0.0000       0.126763         3.4494 
  52   0.0000       0.138114         3.7583 
  53   0.0000       0.144989         3.9454 
  54   0.0000       0.151065         4.1107 
  55   0.0000       0.153003         4.1634 
  56   0.0000       0.156250         4.2518 
  57   0.0000       0.166055         4.5186 
  58   0.0000       0.174742         4.7550 
  59   0.0000       0.189262         5.1501 
  60   0.0000       0.192973         5.2511 
  61   0.0000       0.205236         5.5847 
  62   0.0000       0.208685         5.6786 
  63   0.0000       0.229651         6.2491 
  64   0.0000       0.230403         6.2696 
  65   0.0000       0.241436         6.5698 
  66   0.0000       0.257774         7.0144 
  67   0.0000       0.265640         7.2284 
  68   0.0000       0.273739         7.4488 
  69   0.0000       0.288303         7.8451 
  70   0.0000       0.292064         7.9475 
  71   0.0000       0.326139         8.8747 
  72   0.0000       0.409752        11.1499 
  73   0.0000       0.425836        11.5876 
  74   0.0000       0.431791        11.7496 
  75   0.0000       0.443082        12.0569 
  76   0.0000       0.445461        12.1216 
  77   0.0000       0.456963        12.4346 
  78   0.0000       0.468078        12.7371 
  79   0.0000       0.468381        12.7453 
  80   0.0000       0.482836        13.1386 
  81   0.0000       0.496521        13.5110 
  82   0.0000       0.519793        14.1443 
  83   0.0000       0.525365        14.2959 
  84   0.0000       0.562583        15.3087 
  85   0.0000       0.583885        15.8883 
  86   0.0000       0.626019        17.0348 
  87   0.0000       0.636906        17.3311 
  88   0.0000       0.643232        17.5032 
  89   0.0000       0.647151        17.6099 
  90   0.0000       0.655704        17.8426 
  91   0.0000       0.658105        17.9079 
  92   0.0000       0.662080        18.0161 
  93   0.0000       0.665214        18.1014 
  94   0.0000       0.673208        18.3189 
  95   0.0000       0.675043        18.3689 
  96   0.0000       0.681637        18.5483 
  97   0.0000       0.690567        18.7913 
  98   0.0000       0.696061        18.9408 
  99   0.0000       0.700766        19.0688 
 100   0.0000       0.704303        19.1651 
 101   0.0000       0.708558        19.2808 
 102   0.0000       0.711928        19.3725 
 103   0.0000       0.713599        19.4180 
 104   0.0000       0.716905        19.5080 
 105   0.0000       0.720481        19.6053 
 106   0.0000       0.722456        19.6590 
 107   0.0000       0.724026        19.7018 
 108   0.0000       0.728332        19.8189 
 109   0.0000       0.736153        20.0317 
 110   0.0000       0.738028        20.0828 
 111   0.0000       0.741602        20.1800 
 112   0.0000       0.748486        20.3673 
 113   0.0000       0.750505        20.4223 
 114   0.0000       0.760165        20.6851 
 115   0.0000       0.767210        20.8768 
 116   0.0000       0.770260        20.9598 
 117   0.0000       0.777746        21.1635 
 118   0.0000       0.781405        21.2631 
 119   0.0000       0.794203        21.6114 
 120   0.0000       0.820419        22.3247 
 121   0.0000       0.861334        23.4381 
 122   0.0000       0.890436        24.2300 
 123   0.0000       0.945470        25.7276 
 124   0.0000       0.977522        26.5997 
 125   0.0000       1.032573        28.0977 
 126   0.0000       1.062282        28.9061 
 127   0.0000       1.070727        29.1360 
 128   0.0000       1.079411        29.3723 
 129   0.0000       1.124986        30.6124 
 130   0.0000       1.153245        31.3814 
 131   0.0000       1.163417        31.6582 
 132   0.0000       1.210256        32.9327 
 133   0.0000       1.231039        33.4983 
 134   0.0000       1.396428        37.9987 
 135   0.0000       1.433598        39.0102 
 136   0.0000       1.485621        40.4258 
 137   0.0000       1.522178        41.4206 
 138   0.0000       1.629177        44.3322 
 139   0.0000       1.634944        44.4891 
 140   0.0000       1.677650        45.6512 
 141   0.0000       1.702632        46.3310 
 142   0.0000       1.766079        48.0575 
 143   0.0000       1.809952        49.2513 
 144   0.0000       1.816795        49.4375 
 145   0.0000       1.855180        50.4820 
 146   0.0000       1.869516        50.8721 
 147   0.0000       1.894857        51.5617 
 148   0.0000       1.910007        51.9739 
 149   0.0000       1.916704        52.1562 
 150   0.0000       1.932871        52.5961 
 151   0.0000       1.934894        52.6512 
 152   0.0000       1.963364        53.4259 
 153   0.0000       1.977872        53.8206 
 154   0.0000       1.990359        54.1604 
 155   0.0000       2.009949        54.6935 
 156   0.0000       2.039480        55.4971 
 157   0.0000       2.044181        55.6250 
 158   0.0000       2.060340        56.0647 
 159   0.0000       2.099597        57.1329 
 160   0.0000       2.122329        57.7515 
 161   0.0000       2.137797        58.1724 
 162   0.0000       2.150213        58.5103 
 163   0.0000       2.200147        59.8690 
 164   0.0000       2.222464        60.4763 
 165   0.0000       2.233731        60.7829 
 166   0.0000       2.259574        61.4861 
 167   0.0000       2.287069        62.2343 
 168   0.0000       2.304334        62.7041 
 169   0.0000       2.323800        63.2338 
 170   0.0000       2.359445        64.2038 
 171   0.0000       2.368446        64.4487 
 172   0.0000       2.397918        65.2507 
 173   0.0000       2.435867        66.2833 
 174   0.0000       2.499735        68.0212 
 175   0.0000       2.514401        68.4203 
 176   0.0000       2.562259        69.7226 
 177   0.0000       2.575645        70.0869 
 178   0.0000       2.625911        71.4547 
 179   0.0000       2.631901        71.6177 
 180   0.0000       2.700888        73.4949 
 181   0.0000       2.782008        75.7023 
 182   0.0000       2.821476        76.7763 
 183   0.0000       2.856001        77.7157 

                    ********************************
                    * MULLIKEN POPULATION ANALYSIS *
                    ********************************

------------------------------------------
FOD BASED MULLIKEN REDUCED ORBITAL CHARGES
------------------------------------------
  0 C s       :    -0.000000  s :    -0.000000
      pz      :    -0.000000  p :     0.000000
      px      :     0.000000
      py      :     0.000000
      dz2     :     0.000000  d :     0.000000
      dxz     :     0.000000
      dyz     :     0.000000
      dx2y2   :     0.000000
      dxy     :     0.000000
  1 C s       :    -0.000000  s :    -0.000000
      pz      :     0.000000  p :     0.000000
      px      :     0.000000
      py      :     0.000000
      dz2     :     0.000000  d :     0.000000
      dxz     :     0.000000
      dyz     :     0.000000
      dx2y2   :     0.000000
      dxy     :     0.000000
  2 C s       :    -0.000000  s :    -0.000000
      pz      :     0.000000  p :     0.000000
      px      :     0.000000
      py      :     0.000000
      dz2     :     0.000000  d :     0.000000
      dxz     :     0.000000
      dyz     :     0.000000
      dx2y2   :     0.000000
      dxy     :     0.000000
  3 C s       :    -0.000000  s :    -0.000000
      pz      :     0.000000  p :     0.000000
      px      :     0.000000
      py      :     0.000000
      dz2     :     0.000000  d :     0.000000
      dxz     :     0.000000
      dyz     :     0.000000
      dx2y2   :     0.000000
      dxy     :     0.000000
  4 C s       :    -0.000000  s :    -0.000000
      pz      :     0.000000  p :     0.000000
      px      :     0.000000
      py      :     0.000000
      dz2     :     0.000000  d :     0.000000
      dxz     :     0.000000
      dyz     :     0.000000
      dx2y2   :     0.000000
      dxy     :     0.000000
  5 C s       :    -0.000000  s :    -0.000000
      pz      :     0.000000  p :     0.000000
      px      :     0.000000
      py      :     0.000000
      dz2     :     0.000000  d :     0.000000
      dxz     :     0.000000
      dyz     :     0.000000
      dx2y2   :     0.000000
      dxy     :     0.000000
  6 C s       :    -0.000000  s :    -0.000000
      pz      :     0.000000  p :     0.000000
      px      :     0.000000
      py      :     0.000000
      dz2     :     0.000000  d :     0.000000
      dxz     :     0.000000
      dyz     :     0.000000
      dx2y2   :     0.000000
      dxy     :     0.000000
  7 C s       :    -0.000000  s :    -0.000000
      pz      :     0.000000  p :     0.000000
      px      :     0.000000
      py      :     0.000000
      dz2     :     0.000000  d :     0.000000
      dxz     :     0.000000
      dyz     :     0.000000
      dx2y2   :     0.000000
      dxy     :     0.000000
  8 C s       :    -0.000000  s :    -0.000000
      pz      :     0.000000  p :     0.000000
      px      :     0.000000
      py      :     0.000000
      dz2     :     0.000000  d :     0.000000
      dxz     :     0.000000
      dyz     :     0.000000
      dx2y2   :     0.000000
      dxy     :     0.000000
  9 C s       :    -0.000000  s :    -0.000000
      pz      :     0.000000  p :     0.000000
      px      :     0.000000
      py      :     0.000000
      dz2     :     0.000000  d :     0.000000
      dxz     :     0.000000
      dyz     :     0.000000
      dx2y2   :     0.000000
      dxy     :     0.000000
 10 H s       :     0.000000  s :     0.000000
 11 H s       :     0.000000  s :     0.000000
 12 H s       :     0.000000  s :     0.000000
 13 H s       :     0.000000  s :     0.000000
 14 H s       :     0.000000  s :     0.000000
 15 H s       :     0.000000  s :     0.000000
 16 H s       :     0.000000  s :     0.000000
 17 H s       :     0.000000  s :     0.000000
 18 H s       :     0.000000  s :     0.000000
 19 H s       :     0.000000  s :     0.000000
 20 H s       :     0.000000  s :     0.000000
 21 H s       :     0.000000  s :     0.000000
 22 H s       :     0.000000  s :     0.000000
 23 H s       :     0.000000  s :     0.000000
 24 H s       :     0.000000  s :     0.000000
 25 H s       :     0.000000  s :     0.000000
 26 H s       :     0.000000  s :     0.000000
 27 H s       :     0.000000  s :     0.000000
 28 H s       :     0.000000  s :     0.000000
 29 H s       :     0.000000  s :     0.000000
 30 H s       :     0.000000  s :     0.000000
 31 H s       :     0.000000  s :     0.000000


                     *******************************
                     * LOEWDIN POPULATION ANALYSIS *
                     *******************************

-------------------------------------------
LOEWDIN ATOMIC CHARGES AND SPIN POPULATIONS
-------------------------------------------
   0 C :   -0.320286    0.000000
   1 C :   -0.222178    0.000000
   2 C :   -0.210630    0.000000
   3 C :   -0.210850    0.000000
   4 C :   -0.206198    0.000000
   5 C :   -0.209212    0.000000
   6 C :   -0.212421    0.000000
   7 C :   -0.211054    0.000000
   8 C :   -0.220381    0.000000
   9 C :   -0.321916    0.000000
  10 H :    0.107544    0.000000
  11 H :    0.109069    0.000000
  12 H :    0.112438    0.000000
  13 H :    0.104353    0.000000
  14 H :    0.106021    0.000000
  15 H :    0.105889    0.000000
  16 H :    0.105108    0.000000
  17 H :    0.107889    0.000000
  18 H :    0.104037    0.000000
  19 H :    0.105599    0.000000
  20 H :    0.107074    0.000000
  21 H :    0.101278    0.000000
  22 H :    0.106884    0.000000
  23 H :    0.104343    0.000000
  24 H :    0.105131    0.000000
  25 H :    0.104562    0.000000
  26 H :    0.103848    0.000000
  27 H :    0.106664    0.000000
  28 H :    0.107418    0.000000
  29 H :    0.111535    0.000000
  30 H :    0.108054    0.000000
  31 H :    0.110386    0.000000

----------------------------------------------------
LOEWDIN REDUCED ORBITAL CHARGES AND SPIN POPULATIONS
----------------------------------------------------
CHARGE
  0 C s       :     2.951868  s :     2.951868
      pz      :     1.102127  p :     3.293490
      px      :     1.102399
      py      :     1.088964
      dz2     :     0.017216  d :     0.074928
      dxz     :     0.009473
      dyz     :     0.016498
      dx2y2   :     0.018693
      dxy     :     0.013048
  1 C s       :     2.902767  s :     2.902767
      pz      :     1.082329  p :     3.223953
      px      :     1.071218
      py      :     1.070405
      dz2     :     0.026703  d :     0.095458
      dxz     :     0.015835
      dyz     :     0.010750
      dx2y2   :     0.016809
      dxy     :     0.025361
  2 C s       :     2.901728  s :     2.901728
      pz      :     1.075900  p :     3.211836
      px      :     1.058283
      py      :     1.077652
      dz2     :     0.025690  d :     0.097066
      dxz     :     0.021194
      dyz     :     0.005215
      dx2y2   :     0.024001
      dxy     :     0.020966
  3 C s       :     2.903408  s :     2.903408
      pz      :     1.080259  p :     3.211717
      px      :     1.050195
      py      :     1.081263
      dz2     :     0.027000  d :     0.095725
      dxz     :     0.019733
      dyz     :     0.007341
      dx2y2   :     0.019434
      dxy     :     0.022217
  4 C s       :     2.901205  s :     2.901205
      pz      :     1.078764  p :     3.209802
      px      :     1.053209
      py      :     1.077829
      dz2     :     0.023700  d :     0.095191
      dxz     :     0.020954
      dyz     :     0.006416
      dx2y2   :     0.020277
      dxy     :     0.023844
  5 C s       :     2.907194  s :     2.907194
      pz      :     1.079971  p :     3.208575
      px      :     1.051802
      py      :     1.076802
      dz2     :     0.018427  d :     0.093443
      dxz     :     0.021243
      dyz     :     0.012748
      dx2y2   :     0.019106
      dxy     :     0.021919
  6 C s       :     2.908572  s :     2.908572
      pz      :     1.079814  p :     3.210125
      px      :     1.047308
      py      :     1.083003
      dz2     :     0.025613  d :     0.093724
      dxz     :     0.018184
      dyz     :     0.006232
      dx2y2   :     0.022758
      dxy     :     0.020937
  7 C s       :     2.903645  s :     2.903645
      pz      :     1.081535  p :     3.210152
      px      :     1.053484
      py      :     1.075134
      dz2     :     0.027591  d :     0.097257
      dxz     :     0.018398
      dyz     :     0.007234
      dx2y2   :     0.021018
      dxy     :     0.023016
  8 C s       :     2.898598  s :     2.898598
      pz      :     1.084262  p :     3.225990
      px      :     1.065805
      py      :     1.075923
      dz2     :     0.025498  d :     0.095793
      dxz     :     0.018494
      dyz     :     0.009896
      dx2y2   :     0.013485
      dxy     :     0.028420
  9 C s       :     2.947735  s :     2.947735
      pz      :     1.111026  p :     3.298897
      px      :     1.094317
      py      :     1.093554
      dz2     :     0.004747  d :     0.075285
      dxz     :     0.020478
      dyz     :     0.020777
      dx2y2   :     0.009787
      dxy     :     0.019496
 10 H s       :     0.892456  s :     0.892456
 11 H s       :     0.890931  s :     0.890931
 12 H s       :     0.887562  s :     0.887562
 13 H s       :     0.895647  s :     0.895647
 14 H s       :     0.893979  s :     0.893979
 15 H s       :     0.894111  s :     0.894111
 16 H s       :     0.894892  s :     0.894892
 17 H s       :     0.892111  s :     0.892111
 18 H s       :     0.895963  s :     0.895963
 19 H s       :     0.894401  s :     0.894401
 20 H s       :     0.892926  s :     0.892926
 21 H s       :     0.898722  s :     0.898722
 22 H s       :     0.893116  s :     0.893116
 23 H s       :     0.895657  s :     0.895657
 24 H s       :     0.894869  s :     0.894869
 25 H s       :     0.895438  s :     0.895438
 26 H s       :     0.896152  s :     0.896152
 27 H s       :     0.893336  s :     0.893336
 28 H s       :     0.892582  s :     0.892582
 29 H s       :     0.888465  s :     0.888465
 30 H s       :     0.891946  s :     0.891946
 31 H s       :     0.889614  s :     0.889614

SPIN
  0 C s       :     0.000000  s :     0.000000
      pz      :     0.000000  p :     0.000000
      px      :     0.000000
      py      :     0.000000
      dz2     :     0.000000  d :     0.000000
      dxz     :     0.000000
      dyz     :     0.000000
      dx2y2   :     0.000000
      dxy     :     0.000000
  1 C s       :     0.000000  s :     0.000000
      pz      :     0.000000  p :     0.000000
      px      :     0.000000
      py      :     0.000000
      dz2     :     0.000000  d :     0.000000
      dxz     :     0.000000
      dyz     :     0.000000
      dx2y2   :     0.000000
      dxy     :     0.000000
  2 C s       :     0.000000  s :     0.000000
      pz      :     0.000000  p :     0.000000
      px      :     0.000000
      py      :     0.000000
      dz2     :     0.000000  d :     0.000000
      dxz     :     0.000000
      dyz     :     0.000000
      dx2y2   :     0.000000
      dxy     :     0.000000
  3 C s       :     0.000000  s :     0.000000
      pz      :     0.000000  p :     0.000000
      px      :     0.000000
      py      :     0.000000
      dz2     :     0.000000  d :     0.000000
      dxz     :     0.000000
      dyz     :     0.000000
      dx2y2   :     0.000000
      dxy     :     0.000000
  4 C s       :     0.000000  s :     0.000000
      pz      :     0.000000  p :     0.000000
      px      :     0.000000
      py      :     0.000000
      dz2     :     0.000000  d :     0.000000
      dxz     :     0.000000
      dyz     :     0.000000
      dx2y2   :     0.000000
      dxy     :     0.000000
  5 C s       :     0.000000  s :     0.000000
      pz      :     0.000000  p :     0.000000
      px      :     0.000000
      py      :     0.000000
      dz2     :     0.000000  d :     0.000000
      dxz     :     0.000000
      dyz     :     0.000000
      dx2y2   :     0.000000
      dxy     :     0.000000
  6 C s       :     0.000000  s :     0.000000
      pz      :     0.000000  p :     0.000000
      px      :     0.000000
      py      :     0.000000
      dz2     :     0.000000  d :     0.000000
      dxz     :     0.000000
      dyz     :     0.000000
      dx2y2   :     0.000000
      dxy     :     0.000000
  7 C s       :     0.000000  s :     0.000000
      pz      :     0.000000  p :     0.000000
      px      :     0.000000
      py      :     0.000000
      dz2     :     0.000000  d :     0.000000
      dxz     :     0.000000
      dyz     :     0.000000
      dx2y2   :     0.000000
      dxy     :     0.000000
  8 C s       :     0.000000  s :     0.000000
      pz      :     0.000000  p :     0.000000
      px      :     0.000000
      py      :     0.000000
      dz2     :     0.000000  d :     0.000000
      dxz     :     0.000000
      dyz     :     0.000000
      dx2y2   :     0.000000
      dxy     :     0.000000
  9 C s       :     0.000000  s :     0.000000
      pz      :     0.000000  p :     0.000000
      px      :     0.000000
      py      :     0.000000
      dz2     :     0.000000  d :     0.000000
      dxz     :     0.000000
      dyz     :     0.000000
      dx2y2   :     0.000000
      dxy     :     0.000000
 10 H s       :     0.000000  s :     0.000000
 11 H s       :     0.000000  s :     0.000000
 12 H s       :     0.000000  s :     0.000000
 13 H s       :     0.000000  s :     0.000000
 14 H s       :     0.000000  s :     0.000000
 15 H s       :     0.000000  s :     0.000000
 16 H s       :     0.000000  s :     0.000000
 17 H s       :     0.000000  s :     0.000000
 18 H s       :     0.000000  s :     0.000000
 19 H s       :     0.000000  s :     0.000000
 20 H s       :     0.000000  s :     0.000000
 21 H s       :     0.000000  s :     0.000000
 22 H s       :     0.000000  s :     0.000000
 23 H s       :     0.000000  s :     0.000000
 24 H s       :     0.000000  s :     0.000000
 25 H s       :     0.000000  s :     0.000000
 26 H s       :     0.000000  s :     0.000000
 27 H s       :     0.000000  s :     0.000000
 28 H s       :     0.000000  s :     0.000000
 29 H s       :     0.000000  s :     0.000000
 30 H s       :     0.000000  s :     0.000000
 31 H s       :     0.000000  s :     0.000000


                      *****************************
                      * MAYER POPULATION ANALYSIS *
                      *****************************

  NA   - Mulliken gross atomic population
  ZA   - Total nuclear charge
  QA   - Mulliken gross atomic charge
  VA   - Mayer's total valence
  BVA  - Mayer's bonded valence
  FA   - Mayer's free valence

  ATOM       NA         ZA         QA         VA         BVA        FA
  0 C      6.2685     6.0000    -0.2685     4.0238     4.0238    -0.0000
  1 C      6.1214     6.0000    -0.1214     4.1220     4.1220     0.0000
  2 C      6.1283     6.0000    -0.1283     4.1109     4.1109     0.0000
  3 C      6.2065     6.0000    -0.2065     4.1449     4.1449     0.0000
  4 C      6.0687     6.0000    -0.0687     4.0574     4.0574     0.0000
  5 C      6.1112     6.0000    -0.1112     4.0711     4.0711     0.0000
  6 C      6.2025     6.0000    -0.2025     4.1405     4.1405     0.0000
  7 C      6.1531     6.0000    -0.1531     4.1201     4.1201     0.0000
  8 C      6.0952     6.0000    -0.0952     4.0969     4.0969     0.0000
  9 C      6.2711     6.0000    -0.2711     4.0174     4.0174    -0.0000
 10 H      0.9158     1.0000     0.0842     0.9494     0.9494     0.0000
 11 H      0.9098     1.0000     0.0902     0.9623     0.9623     0.0000
 12 H      0.9027     1.0000     0.0973     0.9539     0.9539     0.0000
 13 H      0.9357     1.0000     0.0643     0.9450     0.9450     0.0000
 14 H      0.9294     1.0000     0.0706     0.9505     0.9505     0.0000
 15 H      0.9357     1.0000     0.0643     0.9574     0.9574     0.0000
 16 H      0.9312     1.0000     0.0688     0.9533     0.9533     0.0000
 17 H      0.9245     1.0000     0.0755     0.9569     0.9569     0.0000
 18 H      0.9268     1.0000     0.0732     0.9552     0.9552     0.0000
 19 H      0.9331     1.0000     0.0669     0.9659     0.9659     0.0000
 20 H      0.9409     1.0000     0.0591     0.9551     0.9551     0.0000
 21 H      0.9395     1.0000     0.0605     0.9567     0.9567     0.0000
 22 H      0.9357     1.0000     0.0643     0.9645     0.9645     0.0000
 23 H      0.9189     1.0000     0.0811     0.9609     0.9609     0.0000
 24 H      0.9309     1.0000     0.0691     0.9498     0.9498     0.0000
 25 H      0.9287     1.0000     0.0713     0.9577     0.9577     0.0000
 26 H      0.9433     1.0000     0.0567     0.9506     0.9506     0.0000
 27 H      0.9322     1.0000     0.0678     0.9560     0.9560     0.0000
 28 H      0.9303     1.0000     0.0697     0.9447     0.9447     0.0000
 29 H      0.9076     1.0000     0.0924     0.9530     0.9530     0.0000
 30 H      0.9038     1.0000     0.0962     0.9628     0.9628     0.0000
 31 H      0.9170     1.0000     0.0830     0.9511     0.9511     0.0000

  Mayer bond orders larger than 0.100000
B(  0-C ,  1-C ) :   1.1338 B(  0-C , 10-H ) :   0.9586 B(  0-C , 11-H ) :   0.9560 
B(  0-C , 12-H ) :   0.9551 B(  1-C ,  2-C ) :   1.1242 B(  1-C , 13-H ) :   0.9344 
[...]
      px      :     0.000000
      py      :     0.000000
      dz2     :     0.000000  d :     0.000000
      dxz     :     0.000000
      dyz     :     0.000000
      dx2y2   :     0.000000
      dxy     :     0.000000
  9 C s       :    -0.000000  s :    -0.000000
      pz      :     0.000000  p :     0.000000
      px      :     0.000000
      py      :     0.000000
      dz2     :     0.000000  d :     0.000000
      dxz     :     0.000000
      dyz     :     0.000000
      dx2y2   :     0.000000
      dxy     :     0.000000
 10 H s       :     0.000000  s :     0.000000
 11 H s       :     0.000000  s :     0.000000
 12 H s       :     0.000000  s :     0.000000
 13 H s       :     0.000000  s :     0.000000
 14 H s       :     0.000000  s :     0.000000
 15 H s       :     0.000000  s :     0.000000
 16 H s       :     0.000000  s :     0.000000
 17 H s       :     0.000000  s :     0.000000
 18 H s       :     0.000000  s :     0.000000
 19 H s       :     0.000000  s :     0.000000
 20 H s       :     0.000000  s :     0.000000
 21 H s       :     0.000000  s :     0.000000
 22 H s       :     0.000000  s :     0.000000
 23 H s       :     0.000000  s :     0.000000
 24 H s       :     0.000000  s :     0.000000
 25 H s       :     0.000000  s :     0.000000
 26 H s       :     0.000000  s :     0.000000
 27 H s       :     0.000000  s :     0.000000
 28 H s       :     0.000000  s :     0.000000
 29 H s       :     0.000000  s :     0.000000
 30 H s       :     0.000000  s :     0.000000
 31 H s       :     0.000000  s :     0.000000


                     *******************************
                     * LOEWDIN POPULATION ANALYSIS *
                     *******************************

-------------------------------------------
LOEWDIN ATOMIC CHARGES AND SPIN POPULATIONS
-------------------------------------------
   0 C :   -0.324321    0.000000
   1 C :   -0.216649    0.000000
   2 C :   -0.209785    0.000000
   3 C :   -0.215154    0.000000
   4 C :   -0.207308    0.000000
   5 C :   -0.207886    0.000000
   6 C :   -0.215284    0.000000
   7 C :   -0.210172    0.000000
   8 C :   -0.216290    0.000000
   9 C :   -0.324182    0.000000
  10 H :    0.111881    0.000000
  11 H :    0.108773    0.000000
  12 H :    0.109551    0.000000
  13 H :    0.107729    0.000000
  14 H :    0.105060    0.000000
  15 H :    0.103256    0.000000
  16 H :    0.106106    0.000000
  17 H :    0.105494    0.000000
  18 H :    0.105705    0.000000
  19 H :    0.103688    0.000000
  20 H :    0.106210    0.000000
  21 H :    0.106030    0.000000
  22 H :    0.103931    0.000000
  23 H :    0.105735    0.000000
  24 H :    0.105528    0.000000
  25 H :    0.103175    0.000000
  26 H :    0.106380    0.000000
  27 H :    0.104515    0.000000
  28 H :    0.108010    0.000000
  29 H :    0.108665    0.000000
  30 H :    0.109857    0.000000
  31 H :    0.111752    0.000000

----------------------------------------------------
LOEWDIN REDUCED ORBITAL CHARGES AND SPIN POPULATIONS
----------------------------------------------------
CHARGE
  0 C s       :     2.952448  s :     2.952448
      pz      :     1.108204  p :     3.298718
      px      :     1.105679
      py      :     1.084835
      dz2     :     0.009927  d :     0.073155
      dxz     :     0.021258
      dyz     :     0.012287
      dx2y2   :     0.009221
      dxy     :     0.020463
  1 C s       :     2.911121  s :     2.911121
      pz      :     1.072414  p :     3.214945
      px      :     1.073285
      py      :     1.069246
      dz2     :     0.017696  d :     0.090583
      dxz     :     0.021946
      dyz     :     0.015189
      dx2y2   :     0.010702
      dxy     :     0.025050
  2 C s       :     2.913584  s :     2.913584
      pz      :     1.069803  p :     3.206055
      px      :     1.054386
      py      :     1.081866
      dz2     :     0.017830  d :     0.090146
      dxz     :     0.025389
      dyz     :     0.010807
      dx2y2   :     0.019623
      dxy     :     0.016496
  3 C s       :     2.912455  s :     2.912455
      pz      :     1.076058  p :     3.212815
      px      :     1.050086
      py      :     1.086671
      dz2     :     0.019706  d :     0.089884
      dxz     :     0.024651
      dyz     :     0.009327
      dx2y2   :     0.020622
      dxy     :     0.015578
  4 C s       :     2.911638  s :     2.911638
      pz      :     1.071507  p :     3.205325
      px      :     1.051726
      py      :     1.082092
      dz2     :     0.019585  d :     0.090345
      dxz     :     0.026371
      dyz     :     0.007608
      dx2y2   :     0.019450
      dxy     :     0.017332
  5 C s       :     2.911857  s :     2.911857
      pz      :     1.074358  p :     3.205723
      px      :     1.050549
      py      :     1.080816
      dz2     :     0.021662  d :     0.090306
      dxz     :     0.025284
      dyz     :     0.005049
      dx2y2   :     0.020473
      dxy     :     0.017838
  6 C s       :     2.912478  s :     2.912478
      pz      :     1.078973  p :     3.212980
      px      :     1.048486
      py      :     1.085520
      dz2     :     0.023317  d :     0.089827
      dxz     :     0.023521
      dyz     :     0.004733
      dx2y2   :     0.021886
      dxy     :     0.016370
  7 C s       :     2.913685  s :     2.913685
      pz      :     1.073514  p :     3.206348
      px      :     1.052956
      py      :     1.079877
      dz2     :     0.022228  d :     0.090140
      dxz     :     0.025089
      dyz     :     0.004668
      dx2y2   :     0.021453
      dxy     :     0.016702
  8 C s       :     2.910998  s :     2.910998
      pz      :     1.075947  p :     3.214680
      px      :     1.071447
      py      :     1.067286
      dz2     :     0.022063  d :     0.090612
      dxz     :     0.020526
      dyz     :     0.009563
      dx2y2   :     0.012416
      dxy     :     0.026045
  9 C s       :     2.952430  s :     2.952430
      pz      :     1.111384  p :     3.298561
      px      :     1.105442
      py      :     1.081735
      dz2     :     0.014197  d :     0.073191
      dxz     :     0.019962
      dyz     :     0.007524
      dx2y2   :     0.010585
      dxy     :     0.020924
 10 H s       :     0.888119  s :     0.888119
 11 H s       :     0.891227  s :     0.891227
 12 H s       :     0.890449  s :     0.890449
 13 H s       :     0.892271  s :     0.892271
 14 H s       :     0.894940  s :     0.894940
 15 H s       :     0.896744  s :     0.896744
 16 H s       :     0.893894  s :     0.893894
 17 H s       :     0.894506  s :     0.894506
 18 H s       :     0.894295  s :     0.894295
 19 H s       :     0.896312  s :     0.896312
 20 H s       :     0.893790  s :     0.893790
 21 H s       :     0.893970  s :     0.893970
 22 H s       :     0.896069  s :     0.896069
 23 H s       :     0.894265  s :     0.894265
 24 H s       :     0.894472  s :     0.894472
 25 H s       :     0.896825  s :     0.896825
 26 H s       :     0.893620  s :     0.893620
 27 H s       :     0.895485  s :     0.895485
 28 H s       :     0.891990  s :     0.891990
 29 H s       :     0.891335  s :     0.891335
 30 H s       :     0.890143  s :     0.890143
 31 H s       :     0.888248  s :     0.888248

SPIN
  0 C s       :     0.000000  s :     0.000000
      pz      :     0.000000  p :     0.000000
      px      :     0.000000
      py      :     0.000000
      dz2     :     0.000000  d :     0.000000
      dxz     :     0.000000
      dyz     :     0.000000
      dx2y2   :     0.000000
      dxy     :     0.000000
  1 C s       :     0.000000  s :     0.000000
      pz      :     0.000000  p :     0.000000
      px      :     0.000000
      py      :     0.000000
      dz2     :     0.000000  d :     0.000000
      dxz     :     0.000000
      dyz     :     0.000000
      dx2y2   :     0.000000
      dxy     :     0.000000
  2 C s       :     0.000000  s :     0.000000
      pz      :     0.000000  p :     0.000000
      px      :     0.000000
      py      :     0.000000
      dz2     :     0.000000  d :     0.000000
      dxz     :     0.000000
      dyz     :     0.000000
      dx2y2   :     0.000000
      dxy     :     0.000000
  3 C s       :     0.000000  s :     0.000000
      pz      :     0.000000  p :     0.000000
      px      :     0.000000
      py      :     0.000000
      dz2     :     0.000000  d :     0.000000
      dxz     :     0.000000
      dyz     :     0.000000
      dx2y2   :     0.000000
      dxy     :     0.000000
  4 C s       :     0.000000  s :     0.000000
      pz      :     0.000000  p :     0.000000
      px      :     0.000000
      py      :     0.000000
      dz2     :     0.000000  d :     0.000000
      dxz     :     0.000000
      dyz     :     0.000000
      dx2y2   :     0.000000
      dxy     :     0.000000
  5 C s       :     0.000000  s :     0.000000
      pz      :     0.000000  p :     0.000000
      px      :     0.000000
      py      :     0.000000
      dz2     :     0.000000  d :     0.000000
      dxz     :     0.000000
      dyz     :     0.000000
      dx2y2   :     0.000000
      dxy     :     0.000000
  6 C s       :     0.000000  s :     0.000000
      pz      :     0.000000  p :     0.000000
      px      :     0.000000
      py      :     0.000000
      dz2     :     0.000000  d :     0.000000
      dxz     :     0.000000
      dyz     :     0.000000
      dx2y2   :     0.000000
      dxy     :     0.000000
  7 C s       :     0.000000  s :     0.000000
      pz      :     0.000000  p :     0.000000
      px      :     0.000000
      py      :     0.000000
      dz2     :     0.000000  d :     0.000000
      dxz     :     0.000000
      dyz     :     0.000000
      dx2y2   :     0.000000
      dxy     :     0.000000
  8 C s       :     0.000000  s :     0.000000
      pz      :     0.000000  p :     0.000000
      px      :     0.000000
      py      :     0.000000
      dz2     :     0.000000  d :     0.000000
      dxz     :     0.000000
      dyz     :     0.000000
      dx2y2   :     0.000000
      dxy     :     0.000000
  9 C s       :     0.000000  s :     0.000000
      pz      :     0.000000  p :     0.000000
      px      :     0.000000
      py      :     0.000000
      dz2     :     0.000000  d :     0.000000
      dxz     :     0.000000
      dyz     :     0.000000
      dx2y2   :     0.000000
      dxy     :     0.000000
 10 H s       :     0.000000  s :     0.000000
 11 H s       :     0.000000  s :     0.000000
 12 H s       :     0.000000  s :     0.000000
 13 H s       :     0.000000  s :     0.000000
 14 H s       :     0.000000  s :     0.000000
 15 H s       :     0.000000  s :     0.000000
 16 H s       :     0.000000  s :     0.000000
 17 H s       :     0.000000  s :     0.000000
 18 H s       :     0.000000  s :     0.000000
 19 H s       :     0.000000  s :     0.000000
 20 H s       :     0.000000  s :     0.000000
 21 H s       :     0.000000  s :     0.000000
 22 H s       :     0.000000  s :     0.000000
 23 H s       :     0.000000  s :     0.000000
 24 H s       :     0.000000  s :     0.000000
 25 H s       :     0.000000  s :     0.000000
 26 H s       :     0.000000  s :     0.000000
 27 H s       :     0.000000  s :     0.000000
 28 H s       :     0.000000  s :     0.000000
 29 H s       :     0.000000  s :     0.000000
 30 H s       :     0.000000  s :     0.000000
 31 H s       :     0.000000  s :     0.000000


                      *****************************
                      * MAYER POPULATION ANALYSIS *
                      *****************************

  NA   - Mulliken gross atomic population
  ZA   - Total nuclear charge
  QA   - Mulliken gross atomic charge
  VA   - Mayer's total valence
  BVA  - Mayer's bonded valence
  FA   - Mayer's free valence

  ATOM       NA         ZA         QA         VA         BVA        FA
  0 C      6.2775     6.0000    -0.2775     4.0091     4.0091     0.0000
  1 C      6.1238     6.0000    -0.1238     4.1182     4.1182     0.0000
  2 C      6.1257     6.0000    -0.1257     4.0796     4.0796     0.0000
  3 C      6.1959     6.0000    -0.1959     4.0972     4.0972     0.0000
  4 C      6.1007     6.0000    -0.1007     4.0813     4.0813     0.0000
  5 C      6.1097     6.0000    -0.1097     4.0840     4.0840     0.0000
  6 C      6.1949     6.0000    -0.1949     4.0943     4.0943     0.0000
  7 C      6.1298     6.0000    -0.1298     4.0799     4.0799     0.0000
  8 C      6.1182     6.0000    -0.1182     4.1116     4.1116     0.0000
  9 C      6.2794     6.0000    -0.2794     4.0107     4.0107     0.0000
 10 H      0.9066     1.0000     0.0934     0.9512     0.9512     0.0000
 11 H      0.9132     1.0000     0.0868     0.9570     0.9570     0.0000
 12 H      0.9015     1.0000     0.0985     0.9576     0.9576     0.0000
 13 H      0.9280     1.0000     0.0720     0.9459     0.9459     0.0000
 14 H      0.9304     1.0000     0.0696     0.9510     0.9510     0.0000
 15 H      0.9365     1.0000     0.0635     0.9559     0.9559     0.0000
 16 H      0.9340     1.0000     0.0660     0.9517     0.9517     0.0000
 17 H      0.9266     1.0000     0.0734     0.9588     0.9588     0.0000
 18 H      0.9230     1.0000     0.0770     0.9546     0.9546     0.0000
 19 H      0.9381     1.0000     0.0619     0.9575     0.9575     0.0000
 20 H      0.9359     1.0000     0.0641     0.9528     0.9528     0.0000
 21 H      0.9354     1.0000     0.0646     0.9526     0.9526     0.0000
 22 H      0.9363     1.0000     0.0637     0.9575     0.9575     0.0000
 23 H      0.9262     1.0000     0.0738     0.9583     0.9583     0.0000
 24 H      0.9231     1.0000     0.0769     0.9551     0.9551     0.0000
 25 H      0.9356     1.0000     0.0644     0.9556     0.9556     0.0000
 26 H      0.9329     1.0000     0.0671     0.9516     0.9516     0.0000
 27 H      0.9329     1.0000     0.0671     0.9513     0.9513     0.0000
 28 H      0.9274     1.0000     0.0726     0.9458     0.9458     0.0000
 29 H      0.9136     1.0000     0.0864     0.9571     0.9571     0.0000
 30 H      0.9003     1.0000     0.0997     0.9564     0.9564     0.0000
 31 H      0.9071     1.0000     0.0929     0.9512     0.9512     0.0000

  Mayer bond orders larger than 0.100000
B(  0-C ,  1-C ) :   1.1301 B(  0-C , 10-H ) :   0.9583 B(  0-C , 11-H ) :   0.9605 
B(  0-C , 12-H ) :   0.9558 B(  1-C ,  2-C ) :   1.1118 B(  1-C , 13-H ) :   0.9355 
B(  1-C , 14-H ) :   0.9339 B(  2-C ,  3-C ) :   1.1136 B(  2-C , 15-H ) :   0.9290 
B(  2-C , 16-H ) :   0.9286 B(  3-C ,  4-C ) :   1.1186 B(  3-C , 17-H ) :   0.9259 
B(  3-C , 18-H ) :   0.9262 B(  4-C ,  5-C ) :   1.1129 B(  4-C , 19-H ) :   0.9237 
B(  4-C , 20-H ) :   0.9284 B(  5-C ,  6-C ) :   1.1177 B(  5-C , 21-H ) :   0.9290 
B(  5-C , 22-H ) :   0.9239 B(  6-C ,  7-C ) :   1.1134 B(  6-C , 23-H ) :   0.9253 
B(  6-C , 24-H ) :   0.9268 B(  7-C ,  8-C ) :   1.1107 B(  7-C , 25-H ) :   0.9297 
B(  7-C , 26-H ) :   0.9286 B(  8-C ,  9-C ) :   1.1284 B(  8-C , 27-H ) :   0.9339 
B(  8-C , 28-H ) :   0.9353 B(  9-C , 29-H ) :   0.9615 B(  9-C , 30-H ) :   0.9565 
B(  9-C , 31-H ) :   0.9588 

-------
TIMINGS
-------

Total SCF time: 0 days 0 hours 3 min 23 sec 

Total time                  ....     203.214 sec
Sum of individual times     ....     170.888 sec  ( 84.1%)

Fock matrix formation       ....     150.463 sec  ( 74.0%)
  XC integration            ....      51.053 sec  ( 33.9% of F)
    Basis function eval.    ....       2.359 sec  (  4.6% of XC)
    Density eval.           ....       2.184 sec  (  4.3% of XC)
    XC-Functional eval.     ....       0.473 sec  (  0.9% of XC)
    XC-Potential eval.      ....       2.617 sec  (  5.1% of XC)
Diagonalization             ....       0.169 sec  (  0.1%)
Density matrix formation    ....      10.377 sec  (  5.1%)
Population analysis         ....       3.335 sec  (  1.6%)
Initial guess               ....       0.015 sec  (  0.0%)
Orbital Transformation      ....       0.000 sec  (  0.0%)
Orbital Orthonormalization  ....       0.009 sec  (  0.0%)
DIIS solution               ....       2.756 sec  (  1.4%)
Grid generation             ....       3.774 sec  (  1.9%)


-------------------------------------------------------------------------------
                          DFT DISPERSION CORRECTION                            
                                                                               
                              DFTD3 V3.1  Rev 1                                
                          USING Becke-Johnson damping                          
-------------------------------------------------------------------------------
The B3LYP functional is recognized
Active option DFTDOPT                   ...         4   

molecular C6(AA) [au] = 6609.705454 


            DFT-D V3
 parameters
 s6 scaling factor         :     1.0000 
 a1 scaling factor         :     0.3981 
 s8 scaling factor         :     1.9889 
 a2 scaling factor         :     4.4211 
 ad hoc parameters k1-k3   :    16.0000     1.3333    -4.0000 

 Edisp/kcal,au: -28.062520259617  -0.044720467859 
 E6   /kcal   : -14.102105924 
 E8   /kcal   : -13.960414335 
 % E8         :  49.747543008 

-------------------------   ----------------
Dispersion correction           -0.044720468
-------------------------   ----------------


-------------------------   --------------------
FINAL SINGLE POINT ENERGY      -393.748324656769
-------------------------   --------------------

                                *** OPTIMIZATION RUN DONE ***

                            ***************************************
                            *     ORCA property calculations      *
                            ***************************************

                                    ---------------------
                                    Active property flags
                                    ---------------------
   (+) Dipole Moment


------------------------------------------------------------------------------
                       ORCA ELECTRIC PROPERTIES CALCULATION
------------------------------------------------------------------------------

Dipole Moment Calculation                       ... on
Quadrupole Moment Calculation                   ... off
Polarizability Calculation                      ... off
GBWName                                         ... orca1.gbw
Electron density file                           ... orca1.scfp
The origin for moment calculation is the CENTER OF MASS  = (-0.002152,  0.010589  0.064848)

-------------
DIPOLE MOMENT
-------------
                                X             Y             Z
Electronic contribution:     -0.03436       0.17818      -1.60723
Nuclear contribution   :      0.03732      -0.18364       1.62630
                        -----------------------------------------
Total Dipole Moment    :      0.00296      -0.00546       0.01907
                        -----------------------------------------
Magnitude (a.u.)       :      0.02005
Magnitude (Debye)      :      0.05097



--------------------
Rotational spectrum 
--------------------
 
Rotational constants in cm-1:     0.080116     0.012030     0.011515 
Rotational constants in MHz :  2401.807297   360.661103   345.208968 

 Dipole components along the rotational axes: 
x,y,z [a.u.] :    -0.002199    -0.019624     0.003498 
x,y,z [Debye]:    -0.005590    -0.049880     0.008891 

 

Timings for individual modules:

Sum of individual times         ...     6689.902 sec (= 111.498 min)
GTO integral calculation        ...      142.247 sec (=   2.371 min)   2.1 %
SCF iterations                  ...     5886.321 sec (=  98.105 min)  88.0 %
SCF Gradient evaluation         ...      561.090 sec (=   9.351 min)   8.4 %
Geometry relaxation             ...      100.244 sec (=   1.671 min)   1.5 %
                             ****ORCA TERMINATED NORMALLY****
TOTAL RUN TIME: 0 days 1 hours 54 minutes 41 seconds 662 msec
