14
Properties=species:S:1:pos:R:3:forces:R:3:gap_forces:R:3 energy=-4301.69981361822 name=tbu gap_energy=-4301.69981361822 config_type=start_0 pbc="F F F"
C        0.04312204       0.14238567      -0.37152566      -1.10313209      -9.97254158      -6.32948908      -1.10313209      -9.97254158      -6.32948908
C        0.58223944       1.23087024       0.28713036     -13.02731202      16.04595246       7.13186104     -13.02731202      16.04595246       7.13186104
C       -1.41217075      -0.40852922      -0.13581015      -7.26060162       4.20646646     -16.60463525      -7.26060162       4.20646646     -16.60463525
C        0.84957039      -1.06625508      -0.16916384      14.26997614      -4.73149326       7.77249194      14.26997614      -4.73149326       7.77249194
H        0.19360394       0.23739674      -1.58762374      -1.06127208       0.39550119       0.83156533      -1.06127208       0.39550119       0.83156533
H       -0.20982241       2.28293294       0.00980789       2.71241215      -2.93688882       0.83760534       2.71241215      -2.93688882       0.83760534
H        1.41970362       1.29601573       0.20686148      11.41420443       2.46110935      -2.52081666      11.41420443       2.46110935      -2.52081666
H        0.41830967       1.47567883       1.37494984      -2.45520067      -1.33453049      -1.45388614      -2.45520067      -1.33453049      -1.45388614
H       -1.57714664      -0.29122015       0.67455655      -1.02889689      -1.32041813      15.48360537      -1.02889689      -1.32041813      15.48360537
H       -2.14223030       0.36733331      -0.65788194       1.66808744      -1.15590605      -0.19364951       1.66808744      -1.15590605      -0.19364951
H       -1.81758348      -1.34987504      -0.75018510       1.80824030       4.01726516       2.25250570       1.80824030       4.01726516       2.25250570
H        0.90639919      -1.40022818       1.06617407      -0.53611521      -0.30641010      -3.23705451      -0.53611521      -0.30641010      -3.23705451
H        2.11070950      -0.89699529      -0.06627537      -5.21436998      -2.58337603      -2.56910725      -5.21436998      -2.58337603      -2.56910725
H        0.42845198      -1.86092413      -0.58682511      -0.18601990      -2.78473016      -1.40099634      -0.18601990      -2.78473016      -1.40099634
14
Properties=species:S:1:pos:R:3:forces:R:3:gap_forces:R:3 energy=-4306.650212681221 name=tbu gap_energy=-4306.650212681221 config_type=start_1 pbc="F F F"
C        0.00436230       0.10396372      -0.45639352       2.80836578       0.98345219      -1.48404475       2.80836578       0.98345219      -1.48404475
C        0.56745632       1.41544829       0.37570176      -9.89987224      -4.40894811      -3.01203178      -9.89987224      -4.40894811      -3.01203178
C       -1.51003348      -0.33341814      -0.24877532      -1.91222935       0.85694187      -0.36599567      -1.91222935       0.85694187      -0.36599567
C        0.85410621      -1.08543132      -0.17352943       8.37629372      -2.52881355       2.88406485       8.37629372      -2.52881355       2.88406485
H       -0.10986934       0.19909237      -1.53921790       1.25633309       2.56733065       0.17990801       1.25633309       2.56733065       0.17990801
H       -0.31063011       2.17276740       0.04176613       4.47563697      -0.30431176       0.75470023       4.47563697      -0.30431176       0.75470023
H        1.57935057       1.59179222       0.21956766       0.52098372       1.84333245      -0.28842111       0.52098372       1.84333245      -0.28842111
H        0.28916550       1.12775799       1.36878712       2.21431833       2.06897724       2.07562197       2.21431833       2.06897724       2.07562197
H       -1.77403776      -0.46072030       0.79846457       0.99630563       0.28689001      -0.27749270       0.99630563       0.28689001      -0.27749270
H       -2.07002495       0.63844788      -0.52724982      -0.99852543      -2.57572181       0.46466002      -0.99852543      -2.57572181       0.46466002
H       -1.50810914      -1.35340264      -0.72920886      -1.95157763       1.63076652      -0.08581482      -1.95157763       1.63076652      -0.08581482
H        0.93806933      -1.40144661       0.83863724       0.43693631       1.60979129       3.04313751       0.43693631       1.60979129       3.04313751
H        2.11757166      -0.94501914      -0.34585574      -6.25407013      -1.20776371      -0.16207303      -6.25407013      -1.20776371      -0.16207303
H        0.70486104      -2.01109644      -0.60302419      -0.06889877      -0.82192328      -3.72621874      -0.06889877      -0.82192328      -3.72621874
14
Properties=species:S:1:pos:R:3:forces:R:3:gap_forces:R:3 energy=-4304.0894945957825 name=tbu gap_energy=-4304.0894945957825 config_type=start_2 pbc="F F F"
C        0.01525696       0.03443878      -0.44186312       1.91624901      -5.27048642      -0.75535635       1.91624901      -5.27048642      -0.75535635
C        0.59429707       1.29581871       0.16599435     -13.98781858       4.65352764       5.12057519     -13.98781858       4.65352764       5.12057519
C       -1.57151610      -0.39815795      -0.08385376      12.14568756       1.53911721     -14.88731857      12.14568756       1.53911721     -14.88731857
C        1.01114031      -1.20935034      -0.14462034      -8.44871148       1.24861708       3.75817299      -8.44871148       1.24861708       3.75817299
H        0.27604892       0.11166196      -1.50441664      -1.40853891      -1.18954336      -1.23087961      -1.40853891      -1.18954336      -1.23087961
H       -0.24081020       2.33330830      -0.08403730       4.12835941      -5.05808885       1.30904725       4.12835941      -5.05808885       1.30904725
H        1.48050352       1.75420879       0.21091665       2.04924107      -0.80872325      -0.86520687       2.04924107      -0.80872325      -0.86520687
H        0.11497894       1.35657816       1.28919479       2.68528541       0.79256265      -2.02713303       2.68528541       0.79256265      -2.02713303
H       -1.59431931      -0.44582110       0.72697844      -1.54625320       0.76582854      11.08327347      -1.54625320       0.76582854      11.08327347
H       -2.14538820       0.74928707      -0.36641906       0.30333751      -3.35695935       1.00967664       0.30333751      -3.35695935       1.00967664
H       -1.72823185      -1.02509802      -0.71420093      -1.13745842       3.03633699       0.85309346      -1.13745842       3.03633699       0.85309346
H        0.88476937      -1.33078989       1.08040553       0.35718332       0.41517978      -4.42927181       0.35718332       0.41517978      -4.42927181
H        1.92409437      -0.91755118      -0.28489878       5.38245135       0.84502051      -0.85864205       5.38245135       0.84502051      -0.85864205
H        0.82224160      -2.17252242      -0.66612065      -2.43901405       2.38761085       1.91996929      -2.43901405       2.38761085       1.91996929
14
Properties=species:S:1:pos:R:3:forces:R:3:gap_forces:R:3 energy=-4304.041263633583 name=tbu gap_energy=-4304.041263633583 config_type=start_3 pbc="F F F"
C        0.19523004       0.15681871      -0.44879315      -6.48493197     -16.34774530       1.07228971      -6.48493197     -16.34774530       1.07228971
C        0.37605772       1.27824885       0.29701736       7.89091239      10.67506266       6.68358981       7.89091239      10.67506266       6.68358981
C       -1.46789535      -0.30690675      -0.14182733      -3.01983482       3.51326122       0.53804951      -3.01983482       3.51326122       0.53804951
C        0.88595998      -1.40276451       0.07058404       2.17690598      14.16102054       2.61343254       2.17690598      14.16102054       2.61343254
H       -0.05048050       0.31194392      -1.41693198       2.11026045       1.48095896      -5.80471703       2.11026045       1.48095896      -5.80471703
H       -0.08902411       2.16273389      -0.14669716      -2.25083088       0.72913655      -0.96251309      -2.25083088       0.72913655      -0.96251309
H        1.45331758       1.59620868       0.18896676      -0.64382217      -1.52865967       1.59055864      -0.64382217      -1.52865967       1.59055864
H        0.12080173       1.34397885       1.39574236       0.91325550      -1.08611302      -0.35748318       0.91325550      -1.08611302      -0.35748318
H       -1.78511081      -0.38945751       0.74848055       2.01769434      -0.82717009       4.17443135       2.01769434      -0.82717009       4.17443135
H       -2.11272756       0.46771271      -0.48204999       1.36817282       2.99684606      -0.41264488       1.36817282       2.99684606      -0.41264488
H       -1.71861866      -0.99455527      -0.62324067      -0.07174411      -8.03583154      -4.14066961      -0.07174411      -8.03583154      -4.14066961
H        0.97325269      -1.58933668       1.03096021      -1.33842150       2.05918232      -2.08378697      -1.33842150       2.05918232      -2.08378697
H        1.99941956      -1.00237345      -0.16323673      -3.69302398      -4.08363803       0.02004272      -3.69302398      -4.08363803       0.02004272
H        0.50933149      -2.00973270      -0.48418030       1.02540794      -3.70631067      -2.93057952       1.02540794      -3.70631067      -2.93057952
14
Properties=species:S:1:pos:R:3:forces:R:3:gap_forces:R:3 energy=-4302.16736413806 name=tbu gap_energy=-4302.16736413806 config_type=start_4 pbc="F F F"
C       -0.00991931      -0.04950207      -0.59844021      -1.51870781       9.12189451       5.01567461      -1.51870781       9.12189451       5.01567461
C        0.57961319       1.24514937       0.24078706     -20.86402167       1.34656978       3.83425100     -20.86402167       1.34656978       3.83425100
C       -1.63778897      -0.08503049      -0.23438857      13.80774015      -8.04836984      -0.44970181      13.80774015      -8.04836984      -0.44970181
C        0.88048544      -1.05970330       0.04229119       7.28592441      -1.13006332      -7.27905659       7.28592441      -1.13006332      -7.27905659
H        0.10756590       0.14980813      -1.66879948      -2.24733284      -0.84016106      -1.92827209      -2.24733284      -0.84016106      -1.92827209
H       -0.26636469       2.19015547      -0.04474947       7.11446925      -3.80028982       2.61961072       7.11446925      -3.80028982       2.61961072
H        1.38690693       1.55216195       0.09562756      10.93802653       3.26547352      -1.74297040      10.93802653       3.26547352      -1.74297040
H        0.47113151       1.34324103       1.50930243      -0.61794014      -0.39847616      -6.10373416      -0.61794014      -0.39847616      -6.10373416
H       -1.69441000      -0.48160752       0.73049707      -6.26283950       3.68728411       6.77770277      -6.26283950       3.68728411       6.77770277
H       -2.20998772       0.79261207      -0.35114316      -0.54631363      -1.13042619      -1.58839358      -0.54631363      -1.13042619      -1.58839358
H       -1.57288924      -1.24890390      -0.63091263      -1.38101531       1.96732832      -4.13841968      -1.38101531       1.96732832      -4.13841968
H        0.70730358      -1.35973958       0.94907324      -0.47269666      -0.54130504       3.95851592      -0.47269666      -0.54130504       3.95851592
H        2.09156016      -0.84348062      -0.09477247      -5.57457778      -2.11388868       0.36553602      -5.57457778      -2.11388868       0.36553602
H        0.62259740      -1.82139969      -0.75995662       0.33928501      -1.38557013       0.65925726       0.33928501      -1.38557013       0.65925726
14
Properties=species:S:1:pos:R:3:forces:R:3:gap_forces:R:3 energy=-4301.280910422729 name=tbu gap_energy=-4301.280910422729 config_type=start_5 pbc="F F F"
C        0.06808314       0.11612206      -0.37937187      -4.27891834      -4.74485047      -0.43052906      -4.27891834      -4.74485047      -0.43052906
C        0.47422598       1.30514487       0.49935983       3.22921657       8.98857700     -16.10200665       3.22921657       8.98857700     -16.10200665
C       -1.41584476      -0.39892059       0.00847789      -6.56302327       7.75067787      -8.23265836      -6.56302327       7.75067787      -8.23265836
C        0.81529678      -1.08376301      -0.22746008      16.80151946       5.57078612      10.87331636      16.80151946       5.57078612      10.87331636
H        0.34794526       0.27350119      -1.62578259       0.55032698      -0.18498959       1.08805365       0.55032698      -0.18498959       1.08805365
H       -0.26589760       2.30784099      -0.05479445       3.52492283      -2.87734615       3.60169996       3.52492283      -2.87734615       3.60169996
H        1.38703706       1.53864589       0.06556479      -5.00907027       2.86295413       3.72721016      -5.00907027       2.86295413       3.72721016
H        0.45342126       1.11193656       1.32694981      -3.04234321      -0.99745877       8.79398780      -3.04234321      -0.99745877       8.79398780
H       -1.83764916      -0.31664963       0.94178949       0.59669656       0.69472373       1.25560537       0.59669656       0.69472373       1.25560537
H       -2.16350066       0.54212165      -0.63205691       3.88687150      -6.21547941       4.71481291       3.88687150      -6.21547941       4.71481291
H       -1.80117693      -1.21146684      -0.62146963      -2.13762001       1.22044031       1.37978035      -2.13762001       1.22044031       1.37978035
H        0.90029689      -1.32211306       1.16688733       0.78342390      -1.21167912      -7.03351498       0.78342390      -1.21167912      -7.03351498
H        2.10003637      -0.72733421      -0.36377068      -6.10716446      -3.76985482       0.00370622      -6.10716446      -3.76985482       0.00370622
H        0.72644758      -1.92736029      -0.44646262      -2.23483824      -7.08650082      -3.63946372      -2.23483824      -7.08650082      -3.63946372
14
Properties=species:S:1:pos:R:3:forces:R:3:gap_forces:R:3 energy=-4303.940021691377 name=tbu gap_energy=-4303.940021691377 config_type=start_6 pbc="F F F"
C        0.21499653       0.07263001      -0.39533976      -5.52860032       1.01396155      -3.72612362      -5.52860032       1.01396155      -3.72612362
C        0.29194676       1.43315781       0.34658154      13.34302493      -2.45131658       6.43819314      13.34302493      -2.45131658       6.43819314
C       -1.29319803      -0.30798177      -0.16660495     -10.45666239       6.70112432      -2.71723686     -10.45666239       6.70112432      -2.71723686
C        1.08279668      -1.10718218      -0.00789097     -11.58925183      -1.29121178       4.01970379     -11.58925183      -1.29121178       4.01970379
H        0.01885028       0.46150814      -1.51800350       0.94884921      -3.12893340      -2.11868101       0.94884921      -3.12893340      -2.11868101
H       -0.09673932       2.18118824      -0.05705435      -3.04151350       3.51556032      -0.40528880      -3.04151350       3.51556032      -0.40528880
H        1.42224963       1.75308851       0.33241661       0.71574292       1.28711332       1.00996106       0.71574292       1.28711332       1.00996106
H        0.30526415       1.24241345       1.36206715      -1.48000393       1.30466364      -1.92528479      -1.48000393       1.30466364      -1.92528479
H       -1.57251086      -0.40547205       0.83857729       2.82205054      -2.90907673       0.44916356       2.82205054      -2.90907673       0.44916356
H       -2.19043767       0.77721336      -0.70261478       2.20828777      -5.95529731       1.12031096       2.20828777      -5.95529731       1.12031096
H       -1.72639166      -1.11875093      -0.67488417       0.31940233      -0.62185488       0.25390955       0.31940233      -0.62185488       0.25390955
H        1.01111196      -1.26454906       1.08503472      -4.42106814      -1.46089656       0.78526660      -4.42106814      -1.46089656       0.78526660
H        1.97522905      -1.02006020      -0.09174267      11.21443932       0.83350498      -5.34433468      11.21443932       0.83350498      -5.34433468
H        0.53468827      -2.13081078      -0.56322138       4.94530309       3.16265912       2.16044109       4.94530309       3.16265912       2.16044109
14
Properties=species:S:1:pos:R:3:forces:R:3:gap_forces:R:3 energy=-4300.779789767088 name=tbu gap_energy=-4300.779789767088 config_type=start_7 pbc="F F F"
C        0.06265880      -0.01211528      -0.64526509      -7.64743610       8.20639272      17.29362473      -7.64743610       8.20639272      17.29362473
C        0.35235005       1.46847346       0.36848435       4.13646053      -7.33938537      -3.13597791       4.13646053      -7.33938537      -3.13597791
C       -1.78006437      -0.14530458      -0.06247335       7.22732091      -2.25030414     -10.91190030       7.22732091      -2.25030414     -10.91190030
C        0.67040111      -1.09820888      -0.11172012      14.84525357      -5.80935436       1.95921123      14.84525357      -5.80935436       1.95921123
H       -0.01569791       0.25632554      -1.43976925      -1.83787127       3.68446944     -19.72211521      -1.83787127       3.68446944     -19.72211521
H       -0.16796833       2.26681452      -0.10832463      -1.44828056       3.02587984       0.40429860      -1.44828056       3.02587984       0.40429860
H        1.49940654       1.80694739       0.22168797      -3.56957322      -0.45651012       1.39457035      -3.56957322      -0.45651012       1.39457035
H        0.32656940       1.18165277       1.44789006      -1.10254124       0.94278103       0.22690182      -1.10254124       0.94278103       0.22690182
H       -1.83246450      -0.44563576       0.79534895       0.71754945       1.67606802       3.41343859       0.71754945       1.67606802       3.41343859
H       -1.99241871       0.63505076      -0.61893644      -3.23010436      -2.96401227       4.01977517      -3.23010436      -2.96401227       4.01977517
H       -2.02532102      -1.21857507      -0.64962485      -2.85262336       4.53189791       2.07685122      -2.85262336       4.53189791       2.07685122
H        0.90811435      -1.09554021       0.97275606      -2.34116087      -1.87418751      -0.29311869      -2.34116087      -1.87418751      -0.29311869
H        2.07859755      -0.96070705      -0.20094927      -2.71342767      -2.91287337       0.79620462      -2.71342767      -2.91287337       0.79620462
H        0.62184756      -2.01171165      -0.69315286      -0.18356580       1.53913817       2.47823578      -0.18356580       1.53913817       2.47823578
14
Properties=species:S:1:pos:R:3:forces:R:3:gap_forces:R:3 energy=-4305.328759192438 name=tbu gap_energy=-4305.328759192438 config_type=start_8 pbc="F F F"
C        0.00034801      -0.09821514      -0.53490502      -3.72639740       4.96073961       2.85816927      -3.72639740       4.96073961       2.85816927
C        0.36443693       1.32428677       0.36013942       3.99544419      -2.43416399     -15.88645295       3.99544419      -2.43416399     -15.88645295
C       -1.62412218      -0.33582588      -0.37594897      11.27421255       9.60207630       9.40522316      11.27421255       9.60207630       9.40522316
C        0.91074416      -1.12081636      -0.01926352      -1.16302966      -2.05025151      -3.73061138      -1.16302966      -2.05025151      -3.73061138
H        0.23877960       0.15127302      -1.63695375       0.19968988      -0.93607547      -1.62535020       0.19968988      -0.93607547      -1.62535020
H        0.03783593       2.23086184      -0.11607005      -1.66953351      -2.96698107       4.12314981      -1.66953351      -2.96698107       4.12314981
H        1.49999354       1.46295850      -0.07416842      -2.65712495       0.72613493       2.75897487      -2.65712495       0.72613493       2.75897487
H        0.10187320       1.22425374       1.23627460      -0.76357706       1.62594597       5.79553289      -0.76357706       1.62594597       5.79553289
H       -1.80858540      -0.42651079       0.86664547       1.07686856      -1.89247029      -5.68504806       1.07686856      -1.89247029      -5.68504806
H       -2.21223380       0.62859010      -0.49010143       0.46251102      -3.20589753      -0.25185545       0.46251102      -3.20589753      -0.25185545
H       -1.82146069      -1.16969646      -0.83391362      -3.27987511      -3.90591403      -2.19596411      -3.27987511      -3.90591403      -2.19596411
H        0.85510833      -1.20530112       1.02544073      -1.75777982      -1.40199569       0.50703054      -1.75777982      -1.40199569       0.50703054
H        2.15717399      -0.94094741      -0.19277289      -4.70968792      -0.51993224       0.89042698      -4.70968792      -0.51993224       0.89042698
H        0.58591494      -2.05656961      -0.68988614       2.71827923       2.39878500       3.03677463       2.71827923       2.39878500       3.03677463
14
Properties=species:S:1:pos:R:3:forces:R:3:gap_forces:R:3 energy=-4304.306648984389 name=tbu gap_energy=-4304.306648984389 config_type=start_9 pbc="F F F"
C        0.15543796       0.01971398      -0.39093902     -10.74604520       6.54588703      -4.02765669     -10.74604520       6.54588703      -4.02765669
C        0.28031310       1.26832202       0.29031674       6.95618141       9.95297591       9.74697411       6.95618141       9.95297591       9.74697411
C       -1.50261649      -0.27610158      -0.13248239       2.40595597       3.68765230       0.98421471       2.40595597       3.68765230       0.98421471
C        0.99966099      -1.01700366      -0.04878922      -8.78066086     -15.30203483       7.03378827      -8.78066086     -15.30203483       7.03378827
H        0.14908047       0.35906823      -1.63554297       0.75326683      -0.65474106      -0.96169658       0.75326683      -0.65474106      -0.96169658
H       -0.19836864       2.31167542       0.05219001      -2.32979249      -3.85579391      -0.59399254      -2.32979249      -3.85579391      -0.59399254
H        1.33514139       1.50467224       0.08949436       0.36441707       0.67265997       0.25025552       0.36441707       0.67265997       0.25025552
H        0.27529063       1.19276315       1.59446268      -0.34301473      -0.20932065      -6.43248056      -0.34301473      -0.20932065      -6.43248056
H       -1.66691553      -0.29512604       1.01119357       3.31046795      -2.11412305      -2.83763878       3.31046795      -2.11412305      -2.83763878
H       -2.09837760       0.59942417      -0.47390127      -0.38310612       0.44875598       0.28435312      -0.38310612       0.44875598       0.28435312
H       -1.85500083      -0.94628072      -0.86871250      -0.13838751      -3.49873303       0.27340281      -0.13838751      -3.49873303       0.27340281
H        0.82110261      -1.22827912       1.14790809      -0.76763134      -0.47727325      -4.14620639      -0.76763134      -0.47727325      -4.14620639
H        1.91688251      -1.13987755      -0.12653999       4.93584396       0.29993707      -1.54510505       4.93584396       0.29993707      -1.54510505
H        0.43497561      -2.19409090      -0.48119666       4.76250507       4.50415151       1.97178806       4.76250507       4.50415151       1.97178806
14
Properties=species:S:1:pos:R:3:forces:R:3:gap_forces:R:3 energy=-4305.4018899149205 name=tbu gap_energy=-4305.4018899149205 config_type=start_10 pbc="F F F"
C       -0.09984055       0.05542637      -0.39378001      14.23550660       2.66708848      -2.76382609      14.23550660       2.66708848      -2.76382609
C        0.42272524       1.38159540       0.31834513       2.19074477      -1.66117286       3.70667482       2.19074477      -1.66117286       3.70667482
C       -1.38316403      -0.32807329      -0.42806325     -24.58892133       0.17243259       3.52818682     -24.58892133       0.17243259       3.52818682
C        0.85501252      -1.02166685       0.01429600       9.36125809      -3.97883150       2.09097542       9.36125809      -3.97883150       2.09097542
H        0.11932789       0.03402368      -1.68720433      -0.74952157       2.00093912       0.16680419      -0.74952157       2.00093912       0.16680419
H       -0.12753409       2.24698270      -0.06528996       1.65552078       0.02626280       0.59324654       1.65552078       0.02626280       0.59324654
H        1.57860860       1.65225214       0.18133085      -4.51515132       0.06446433       0.13954738      -4.51515132       0.06446433       0.13954738
H        0.26777572       1.08623859       1.48841424      -0.46896146       1.60697727      -3.47779121      -0.46896146       1.60697727      -3.47779121
H       -1.69380055      -0.49629368       0.77574454       2.86850883       1.70935799      -5.15374839       2.86850883       1.70935799      -5.15374839
H       -2.14773379       0.70731429      -0.61822690       2.93297571      -5.38411960       0.56439484       2.93297571      -5.38411960       0.56439484
H       -1.82924595      -1.28594489      -0.97865554       2.19441852       2.69156387       1.87514788       2.19441852       2.69156387       1.87514788
H        0.79771219      -1.36742175       1.10590348      -1.40914204       2.11352899      -2.51553805      -1.40914204       2.11352899      -2.51553805
H        2.02996772      -0.84187302      -0.24469865      -4.15439616       0.17570638       1.47829030      -4.15439616       0.17570638       1.47829030
H        0.68754961      -1.93742135      -0.46540698       0.44716059      -2.20419786      -0.23236446       0.44716059      -2.20419786      -0.23236446
14
Properties=species:S:1:pos:R:3:forces:R:3:gap_forces:R:3 energy=-4303.190867465805 name=tbu gap_energy=-4303.190867465805 config_type=start_11 pbc="F F F"
C        0.04108853       0.02018498      -0.29968024      -3.22766447      -6.21731781      -6.09096359      -3.22766447      -6.21731781      -6.09096359
C        0.36437511       1.29969099       0.07764255       9.09746554      17.95566742      10.40991943       9.09746554      17.95566742      10.40991943
C       -1.44265933      -0.16413009      -0.40159508      -8.01048465      -9.51881499       7.31656942      -8.01048465      -9.51881499       7.31656942
C        0.89089745      -1.18996621       0.01865845       8.22819376       0.71948880     -17.37786860       8.22819376       0.71948880     -17.37786860
H        0.24024067       0.18502815      -1.51389602      -1.61994690      -0.76578914       3.26727672      -1.61994690      -0.76578914       3.26727672
H       -0.14967216       2.24221728      -0.10111860      -1.20616123      -0.82704504      -2.38579258      -1.20616123      -0.82704504      -2.38579258
H        1.45067594       1.76595215       0.15947440      -0.32064128      -3.55355144      -1.34303266      -0.32064128      -3.55355144      -1.34303266
H        0.25587862       1.30128530       1.24580762       0.36240182      -1.86751543      -1.29559431       0.36240182      -1.86751543      -1.29559431
H       -1.57918243      -0.47528843       0.98300005      -1.53915002       1.60641309      -7.23119557      -1.53915002       1.60641309      -7.23119557
H       -2.16390555       0.65689944      -0.61756581       1.58107852      -1.43857184      -0.95326146       1.58107852      -1.43857184      -0.95326146
H       -1.81505197      -1.22730999      -0.73718400       1.17060202       3.86429276       0.19460239       1.17060202       3.86429276       0.19460239
H        0.64674506      -1.33641359       0.87697271      -1.80515501      -0.14301768       7.62212758      -1.80515501      -0.14301768       7.62212758
H        2.03174278      -0.91645829      -0.39876004      -3.49339983      -3.13493668       2.78059879      -3.49339983      -3.13493668       2.78059879
H        0.73116681      -2.08856235      -0.87052718       0.78286172       3.32069797       5.08661444       0.78286172       3.32069797       5.08661444
14
Properties=species:S:1:pos:R:3:forces:R:3:gap_forces:R:3 energy=-4302.5398790636455 name=tbu gap_energy=-4302.5398790636455 config_type=start_12 pbc="F F F"
C        0.21367014       0.09209130      -0.38785560      -1.71212540      -2.26640677       6.60326231      -1.71212540      -2.26640677       6.60326231
C        0.49711899       1.35181295       0.23979778       2.37453083       1.48353451       2.97193097       2.37453083       1.48353451       2.97193097
C       -1.64425957      -0.34749190      -0.36698494      14.14065121       8.83832460      12.69895852      14.14065121       8.83832460      12.69895852
C        1.10347320      -0.92838152       0.15220184      -9.51693578     -11.64988426      -3.78948898      -9.51693578     -11.64988426      -3.78948898
H        0.29742899       0.34054429      -1.28160455      -1.21234555       2.85691897      -6.24715164      -1.21234555       2.85691897      -6.24715164
H       -0.02291470       2.19626744       0.05062606      -4.46575468       3.37862140      -0.95992878      -4.46575468       3.37862140      -0.95992878
H        1.54570687       1.69684666      -0.02253930       0.72356514      -0.28294388       0.50810254       0.72356514      -0.28294388       0.50810254
H        0.40264939       1.18953420       1.44141534      -0.51024197      -0.36172657      -3.66795008      -0.51024197      -0.36172657      -3.66795008
H       -1.54239520      -0.40063820       0.93702595      -3.63944871      -0.97822229      -5.41947466      -3.63944871      -0.97822229      -5.41947466
H       -2.03343046       0.61721444      -0.49499281      -1.59830708      -3.10927419      -2.24048085      -1.59830708      -3.10927419      -2.24048085
H       -1.70539679      -1.26395803      -0.67903365      -2.70065410      -3.14222233      -2.51158097      -2.70065410      -3.14222233      -2.51158097