14
Properties=species:S:1:pos:R:3:forces:R:3:gap_forces:R:3 energy=-4224.078823039384 name=tbu gap_energy=-4224.078823039384 config_type=start_0 pbc="F F F"
C        0.48146909      -0.76902880      -1.28757823     170.25019174     -49.37144028     127.62114708     170.25019174     -49.37144028     127.62114708
C       -0.11302642      -0.58935752      -1.72154935    -171.32760388      57.29654845    -123.92850363    -171.32760388      57.29654845    -123.92850363
C       -0.50613968       1.87693614       0.57259557       1.20916324       1.13526409      -1.54070985       1.20916324       1.13526409      -1.54070985
C        0.09302929       0.18225685       2.82358104      -0.31015103       0.81916904      -1.29863855      -0.31015103       0.81916904      -1.29863855
H        0.04440340       0.96841393      -0.69139700       6.05573100     -10.49478306       2.10371651       6.05573100     -10.49478306       2.10371651
H        0.80965976       2.69253920       0.62891558      -2.55510464       2.60466929       0.06858882      -2.55510464       2.60466929       0.06858882
H        0.66350022       0.99407698       0.48241648       1.26402234      -2.18731816      -3.69884591       1.26402234      -2.18731816      -3.69884591
H        1.61596172       1.28675440       1.52629375       0.73154654      -3.27428116       0.87526077       0.73154654      -3.27428116       0.87526077
H       -1.23619359       1.34919162       2.25043346       2.73056935      -0.26898787      -1.90524314       2.73056935      -0.26898787      -1.90524314
H       -1.33553662       1.96348309      -1.91925960      -1.76352441       0.56079697      -1.06694242      -1.76352441       0.56079697      -1.06694242
H       -0.66811489      -2.38115582      -0.45429495      -7.44406204       7.82557942     -21.89358684      -7.44406204       7.82557942     -21.89358684
H        0.44690084      -3.15634762       2.30520247       0.99251164      -0.29189652       2.06662926       0.99251164      -0.29189652       2.06662926
H        2.63211695      -0.24809583      -0.88142613      -5.90690276       4.17929917       3.04545341      -5.90690276       4.17929917       3.04545341
H       -0.41574687      -2.76497044       0.41921858       6.07361290      -8.53261939      19.55167449       6.07361290      -8.53261939      19.55167449
14
Properties=species:S:1:pos:R:3:forces:R:3:gap_forces:R:3 energy=-4260.405236584332 name=tbu gap_energy=-4260.405236584332 config_type=start_1 pbc="F F F"
C        0.09214899      -0.30473053      -0.84590888       4.26791923      11.26439907      -3.33421982       4.26791923      11.26439907      -3.33421982
C        0.64372281       2.03221859      -0.75642042      -0.25261915      -5.58840593       2.91275620      -0.25261915      -5.58840593       2.91275620
C       -0.42494711      -2.47482488       0.50869710      10.32280536      -2.23157606       2.15364416      10.32280536      -2.23157606       2.15364416
C        0.98133830      -1.86130189       0.94611755      -8.84104803      -4.41505777      -1.69022037      -8.84104803      -4.41505777      -1.69022037
H        0.80185638       0.59490528      -3.93170897       0.11816438       0.62508206      -0.44349035       0.11816438       0.62508206      -0.44349035
H        0.90632975       2.72871115       0.91065900      -5.96842059       2.65997036       0.90282626      -5.96842059       2.65997036       0.90282626
H        1.51913883       1.90527208       0.27988414       1.49060147      -6.56590128      -4.80948933       1.49060147      -6.56590128      -4.80948933
H       -1.71816913      -0.34209775       1.52065639      -1.54954688      -1.83891353       5.24323240      -1.54954688      -1.83891353       5.24323240
H       -1.09503698       0.64572601       0.47721829       6.99894859       8.15517614       2.77181186       6.99894859       8.15517614       2.77181186
H       -2.48236049       0.31917924      -0.21190440      -4.30243774       0.99684574      -3.23947869      -4.30243774       0.99684574      -3.23947869
H       -1.71802131      -1.06801976      -1.44561077      -2.25220913      -1.59700809      -2.75123682      -2.25220913      -1.59700809      -2.75123682
H       -0.44019933      -2.24994377      -0.67474176      -2.06581778      -1.90456041       4.33285862      -2.06581778      -1.90456041       4.33285862
H        2.18517502      -1.37075617       0.56027021      -0.31552596       0.62758185      -0.63273623      -0.31552596       0.62758185      -0.63273623
H        0.60644817      -1.40170392      -2.39547598       2.34918623      -0.18763215      -1.41625790       2.34918623      -0.18763215      -1.41625790
14
Properties=species:S:1:pos:R:3:forces:R:3:gap_forces:R:3 energy=-4243.0399232648315 name=tbu gap_energy=-4243.0399232648315 config_type=start_2 pbc="F F F"
C        0.35308816       0.82439882       0.01980643       5.23830645       0.44009409       2.89477288       5.23830645       0.44009409       2.89477288
C        0.47052975       3.13422963      -0.66460148       2.73796423      -9.87629689       3.97311631       2.73796423      -9.87629689       3.97311631
C       -1.30478225       0.69057801      -1.01442371      81.33824571     -47.10413676     -82.95861997      81.33824571     -47.10413676     -82.95861997
C        1.77549552       0.65055255       0.88855849      -7.87357353     -11.31225745      -4.20478729      -7.87357353     -11.31225745      -4.20478729
H       -0.53380179       1.72732076      -1.94158212      -3.89889839      -0.15521339      -6.48677372      -3.89889839      -0.15521339      -6.48677372
H       -0.08364304       1.49061246      -0.55941107      -1.90718692       0.88121653       3.86066407      -1.90718692       0.88121653       3.86066407
H        1.44147329       1.62067078       0.09339989      -2.65831345       2.46505854      -1.37333807      -2.65831345       2.46505854      -1.37333807
H       -0.07656395      -1.16757295       0.99405775     -14.41365999       0.92189135       4.96404549     -14.41365999       0.92189135       4.96404549
H       -0.61650221      -1.29427010       2.28901660      -1.49621148      -0.88748661       0.96590680      -1.49621148      -0.88748661       0.96590680
H       -1.63110067       0.93994558      -0.64291207     -75.67857100      53.37061960      84.77916808     -75.67857100      53.37061960      84.77916808
H       -0.02605227      -0.54044160      -1.59356402       0.59689100      -3.53870265      -2.18650699       0.59689100      -3.53870265      -2.18650699
H        0.58228371      -1.00282143       0.93714018      19.26830129      13.75760337      -5.86183231      19.26830129      13.75760337      -5.86183231
H        3.40807989      -0.46026707       0.12212513      -4.30442658       4.01109554       1.35335079      -4.30442658       4.01109554       1.35335079
H        1.35426883      -2.75750666       0.83879910       3.05113266      -2.97348527       0.28083391       3.05113266      -2.97348527       0.28083391
14
Properties=species:S:1:pos:R:3:forces:R:3:gap_forces:R:3 energy=-4249.097492734739 name=tbu gap_energy=-4249.097492734739 config_type=start_3 pbc="F F F"
C        0.39852042       1.56688861       1.26099048       1.63796136       5.80021695       4.73571607       1.63796136       5.80021695       4.73571607
C        0.03308838       0.53254746       0.56869218      -6.18916259     -19.58815316     -15.72209709      -6.18916259     -19.58815316     -15.72209709
C       -3.61800797       0.62841941       2.03535694      -0.28515834      -0.18164383      -0.15184778      -0.28515834      -0.18164383      -0.15184778
C       -1.14785678      -1.08090706      -0.47146340       5.41212715      18.07849019     -25.76056641       5.41212715      18.07849019     -25.76056641
H        1.67531445       0.54768985      -1.24193743     -23.08904899      28.48592915     -11.12542658     -23.08904899      28.48592915     -11.12542658
H       -0.77101806       1.27403936       1.85315019      -1.85299261       4.97715737       7.91310428      -1.85299261       4.97715737       7.91310428
H        2.09144800      -0.07943603      -0.97572498       5.88075472     -28.52421023      18.42564209       5.88075472     -28.52421023      18.42564209
H        1.59497595       0.47054503       0.91428666      10.30226556      -3.46835270      -1.31471744      10.30226556      -3.46835270      -1.31471744
H       -0.72496521      -2.01574868      -0.83474687       3.49729255      -2.38213282      -7.34020044       3.49729255      -2.38213282      -7.34020044
H       -1.36875707       0.44349748      -0.19497821      -2.78249515       3.88340106      -1.33060972      -2.78249515       3.88340106      -1.33060972
H       -1.14324164      -1.44165031       0.12650528      -3.57051804     -12.96391035      37.50124768      -3.57051804     -12.96391035      37.50124768
H        0.87200569       0.50959943       2.37719818      -3.22345359       1.55654444       0.67942790      -3.22345359       1.55654444       0.67942790
H        2.75281014       0.40396429      -1.71305765      15.67838203       7.73375523     -10.35725470      15.67838203       7.73375523     -10.35725470
H        2.16848785      -1.82681598      -0.63037162      -1.41595406      -3.40709129       3.84758212      -1.41595406      -3.40709129       3.84758212
14
Properties=species:S:1:pos:R:3:forces:R:3:gap_forces:R:3 energy=-4237.807984955966 name=tbu gap_energy=-4237.807984955966 config_type=start_4 pbc="F F F"
C        0.55164445       0.57316220      -1.89041663      -1.87087972      -2.17303312      -7.59169732      -1.87087972      -2.17303312      -7.59169732
C        0.97986315       4.47783651      -0.55620125       0.51677978      -0.12349276      -0.06684571       0.51677978      -0.12349276      -0.06684571
C       -1.72289002       0.91750982      -0.04970177      -1.22470793      83.21444824      75.22395670      -1.22470793      83.21444824      75.22395670
C        1.65506454      -2.54982468       0.69926968      14.42413663      -2.56298878     -13.28603025      14.42413663      -2.56298878     -13.28603025
H        0.65566894       0.79802818      -1.01536192       2.92034560       0.54837291       8.56703325       2.92034560       0.54837291       8.56703325
H       -1.11178899       3.95692451      -0.22873801      -0.52352237      -0.29304187       0.08062976      -0.52352237      -0.29304187       0.08062976
H        1.42959155       1.48172152      -0.12367425      -2.53332269       0.59110453      -1.19311420      -2.53332269       0.59110453      -1.19311420
H        3.44966861       1.83240705       1.07373514       3.48285798       0.19298440       2.06437029       3.48285798       0.19298440       2.06437029
H       -3.87285956       0.34961369      -1.83617291      -1.49850300       0.06728729      -2.27171066      -1.49850300       0.06728729      -2.27171066
H       -1.70805255       0.49972930      -0.42938385       1.65811295     -83.48080959     -75.09126869       1.65811295     -83.48080959     -75.09126869
H       -3.56408864       0.14481645      -0.25707053      -0.07714341      -0.25933819       1.59133591      -0.07714341      -0.25933819       1.59133591
H        1.07285381      -2.19359733       0.98869965     -17.23271793       7.53769440      17.38739907     -17.23271793       7.53769440      17.38739907
H        2.02439588      -0.96566166       0.84226293       2.75791789       0.04410497      -0.47040511       2.75791789       0.04410497      -0.47040511
H        0.41011059      -2.10361950      -0.26298203      -0.79935377      -3.30329244      -4.94365303      -0.79935377      -3.30329244      -4.94365303
14
Properties=species:S:1:pos:R:3:forces:R:3:gap_forces:R:3 energy=-4274.667927512996 name=tbu gap_energy=-4274.667927512996 config_type=start_5 pbc="F F F"
C        0.12078704      -1.00214483      -3.41324395      -1.56162311       0.70040527       3.69805479      -1.56162311       0.70040527       3.69805479
C        0.34333397      -0.05724367      -0.18748728     -13.99765296      -2.85937067       6.18590649     -13.99765296      -2.85937067       6.18590649
C       -1.12795666       0.49848365       0.16028623       0.24342936       6.11609727      -5.06930449       0.24342936       6.11609727      -5.06930449
C       -0.64089686      -0.99809632       0.19666047      -0.41408219      -5.08822384       1.74282860      -0.41408219      -5.08822384       1.74282860
H       -0.96243692       0.29605343      -1.20208690       1.81906923       4.76203245      -0.41695206       1.81906923       4.76203245      -0.41695206
H        0.17472253       3.07590460       1.05238176       3.61341728       2.11641967      -0.81759138       3.61341728       2.11641967      -0.81759138
H        2.39224064       1.67202186       1.44149739       2.41357287       0.35818074       1.53492215       2.41357287       0.35818074       1.53492215
H       -1.08830387       2.08545722       2.23438341      -0.70287493      -0.87312460       4.54275635      -0.70287493      -0.87312460       4.54275635
H       -1.57806930      -0.48609141       0.30168786      -1.25572885      -0.81683310       4.49478459      -1.25572885      -0.81683310       4.49478459
H       -1.72081801       2.50762848       0.35238650      -4.05638584       0.21270446      -2.71552776      -4.05638584       0.21270446      -2.71552776
H       -1.12590243      -1.23332022      -1.97930971       0.65013893      -6.47749092      -3.49207026       0.65013893      -6.47749092      -3.49207026
H        0.60108527      -1.08438921       0.33006424      -1.17532780       1.11676398      -5.35012959      -1.17532780       1.11676398      -5.35012959
H        1.10042445       0.16822141      -0.08018036      12.96114136       5.58629680       1.03395122      12.96114136       5.58629680       1.03395122
H        0.26052528      -2.31473922      -1.86111609       1.46290666      -4.85385753      -5.37162865       1.46290666      -4.85385753      -5.37162865
14
Properties=species:S:1:pos:R:3:forces:R:3:gap_forces:R:3 energy=-4255.530020112628 name=tbu gap_energy=-4255.530020112628 config_type=start_6 pbc="F F F"
C        1.28932285       1.77572410       1.37719866      -0.44486693      -2.87773458      -1.79699780      -0.44486693      -2.87773458      -1.79699780
C        0.57478524       1.91775070      -2.72206945       0.08873254      -0.28657838       0.70692856       0.08873254      -0.28657838       0.70692856
C       -0.64925228      -0.20789530      -1.17818937       0.40503319       0.58113917       1.98365766       0.40503319       0.58113917       1.98365766
C        0.45340577      -2.27155369       0.83852988       0.23864357       0.93507866       0.06753691       0.23864357       0.93507866       0.06753691
H       -0.95246378       1.09988057      -3.04796308       0.09581451       0.45624523      -1.08673966       0.09581451       0.45624523      -1.08673966
H        0.79005503       3.63275675       0.12814455       0.16047179      -0.08306905       0.81559906       0.16047179      -0.08306905       0.81559906
H        0.77236898       0.48555204      -0.22206957       2.42027975      -2.52451948       0.00233939       2.42027975      -2.52451948       0.00233939
H        1.70908481       0.77148948       3.14581677      -0.23643056       1.33383527      -0.56140113      -0.23643056       1.33383527      -0.56140113
H       -1.14938056       0.28156387       0.38090357       0.05589066      -0.54982157      -1.02008580       0.05589066      -0.54982157      -1.02008580
H       -2.52639995      -0.26950814      -0.52368722       1.16940085       0.26412601       0.31180653       1.16940085       0.26412601       0.31180653
H       -2.45672203      -1.91142642      -1.15018064       0.68371553       0.14394081       0.60781754       0.68371553       0.14394081       0.60781754
H        1.23337589      -2.32645879       1.97558398      -0.44712812       0.08209866      -0.67699078      -0.44712812       0.08209866      -0.67699078
H        3.03336609      -0.81452175      -0.57770843      -4.17960003       2.49845809       0.61984244      -4.17960003       2.49845809       0.61984244
H        0.46122985      -3.14233085      -3.33525149      -0.00995675       0.02680117       0.02668707      -0.00995675       0.02680117       0.02668707
14
Properties=species:S:1:pos:R:3:forces:R:3:gap_forces:R:3 energy=-4266.60546442245 name=tbu gap_energy=-4266.60546442245 config_type=start_7 pbc="F F F"
C        0.49554910       0.19637372       1.70108802       9.51936339      -8.55500115     -14.69491630       9.51936339      -8.55500115     -14.69491630
C        1.10528842       2.52897542      -1.14989647       2.54855776       0.42107870      -0.03868188       2.54855776       0.42107870      -0.03868188
C        0.41728848      -0.89304282      -1.45118622       4.14403155       2.10492214      10.92021602       4.14403155       2.10492214      10.92021602
C        1.24221253      -0.29080572       0.29956699      -8.22192577       2.19495640       3.66278176      -8.22192577       2.19495640       3.66278176
H       -0.16532748      -0.01754423      -4.18433999       0.08103303      -0.11776842       0.42621741       0.08103303      -0.11776842       0.42621741
H       -1.28934826       1.56453129      -0.36734785      -7.06081192      -0.86781093      11.54992450      -7.06081192      -0.86781093      11.54992450
H        0.87624457       1.76510102      -0.35632456      -1.04977051      -3.31725462      -1.19554876      -1.04977051      -3.31725462      -1.19554876
H       -0.50516074       0.90312239       2.19434190      -4.72224493       2.73311372      -3.96575590      -4.72224493       2.73311372      -3.96575590
H       -0.26361409      -1.83180993       0.63584295      -7.66834041       0.33824585      -2.04315444      -7.66834041       0.33824585      -2.04315444
H       -1.35430941       0.55557792      -1.14014295      -1.23958314      -1.88138312      -0.35230114      -1.23958314      -1.88138312      -0.35230114
H       -3.85770774       0.38874097       0.25091937       7.91021438       1.88667996      -3.29744243       7.91021438       1.88667996      -3.29744243
H        0.82922685      -1.68363101       1.82537265       0.65396758       5.72887978       8.72239462       0.65396758       5.72887978       8.72239462
H        1.13459156      -1.75579919       0.33583937       4.19186865      -1.25479169      -9.74471065       4.19186865      -1.25479169      -9.74471065
H        3.01758372      -0.93349189      -0.36569972       0.91364034       0.58613337       0.05097718       0.91364034       0.58613337       0.05097718
14
Properties=species:S:1:pos:R:3:forces:R:3:gap_forces:R:3 energy=-4245.948061150939 name=tbu gap_energy=-4245.948061150939 config_type=start_8 pbc="F F F"
C        2.12262753      -0.80700119       0.41125700      -8.21318972       5.64621803      -1.16018812      -8.21318972       5.64621803      -1.16018812
C        0.15242460       2.09988155       0.66006099      -1.46461634       1.86748931       9.98220989      -1.46461634       1.86748931       9.98220989
C       -2.90722821      -0.78636740      -0.76136155       6.43719749      -7.96158901       5.76731537       6.43719749      -7.96158901       5.76731537
C       -1.17636627      -0.70590054      -0.54344156       2.08202306      -0.70631112       4.91472029       2.08202306      -0.70631112       4.91472029
H       -1.21240439       0.12977940      -1.63590172      14.23486399       9.44578496      -6.27629733      14.23486399       9.44578496      -6.27629733
H        0.27833527       1.66276422      -0.23463412      -4.15808842      -2.16564066      -9.96997818      -4.15808842      -2.16564066      -9.96997818
H        1.01636241       0.60292864       0.44176451      -7.56809847       7.35240990      -7.44566247      -7.56809847       7.35240990      -7.44566247
H        1.26512198       0.18439328       1.01945005       7.13589112     -19.15759102      14.28648750       7.13589112     -19.15759102      14.28648750
H       -1.96713983      -1.66932446       0.11475894     -10.92035265       1.96458654     -11.60576861     -10.92035265       1.96458654     -11.60576861
H       -2.21126931      -0.33036568      -1.66891490     -12.06247609      -3.70240096      -0.69176256     -12.06247609      -3.70240096      -0.69176256
H       -2.18154719      -1.65233171      -0.34499066       5.29290470       4.33160451       9.61057410       5.29290470       4.33160451       9.61057410
H        2.50522113      -2.29612201       0.46816426      -4.40373778       8.78458755       0.77176908      -4.40373778       8.78458755       0.77176908
H        2.06680436       0.52659778      -0.48566121      10.06439106      -6.02116516      -9.03515181      10.06439106      -6.02116516      -9.03515181
H        1.17078988      -1.50913136      -0.52026452       3.54328804       0.32201711       0.85173286       3.54328804       0.32201711       0.85173286
14
Properties=species:S:1:pos:R:3:forces:R:3:gap_forces:R:3 energy=-4224.2184136487285 name=tbu gap_energy=-4224.2184136487285 config_type=start_9 pbc="F F F"
C        0.32302146      -1.01925285      -1.44404912      -0.74812159       7.80841561      17.14330264      -0.74812159       7.80841561      17.14330264
C       -0.07371439      -0.03338558       0.57453988    -146.75517670      -6.48490525     211.79652391    -146.75517670      -6.48490525     211.79652391
C        0.32352704      -0.02733165      -0.02501331     146.49569768      -9.89517584    -223.31195784     146.49569768      -9.89517584    -223.31195784
C       -1.51101294      -2.68761219       1.73986934       4.03266269       3.34539803      -2.62192412       4.03266269       3.34539803      -2.62192412
H        0.28693433       0.84097575      -2.63719310       2.50674453       2.75935229       0.17506403       2.50674453       2.75935229       0.17506403
H       -1.00457157       2.21134541       0.26358309      -3.46349152       4.88562120       0.37390649      -3.46349152       4.88562120       0.37390649
H        1.37974961       1.17213189      -0.05433325      -0.96669690       3.27738205      -5.64851009      -0.96669690       3.27738205      -5.64851009
H        0.75277726       1.10792621       1.45610556      -2.08384911      -0.66337643       2.99521136      -2.08384911      -0.66337643       2.99521136
H       -2.06741138      -0.85341525       1.48480329       0.80260713      -2.19913336      -0.99145835       0.80260713      -2.19913336      -0.99145835
H       -2.67808953       2.75515330       0.25980709       1.45223239      -0.70843560      -0.11995855       1.45223239      -0.70843560      -0.11995855
H       -0.93615379      -0.75494503      -1.36689274      -4.32392096      -2.72070580      -1.61655377      -4.32392096      -2.72070580      -1.61655377
H        0.04195058      -0.82079525       1.61420097       2.02617704       2.53147062       1.30948093       2.02617704       2.53147062       1.30948093
H        2.53745151      -0.12444940       0.49999151       6.20584694      -2.80110652       0.69542551       6.20584694      -2.80110652       0.69542551
H        0.03336050      -2.06464839       0.38406587      -5.18071162       0.86519900      -0.17855213      -5.18071162       0.86519900      -0.17855213
14
Properties=species:S:1:pos:R:3:forces:R:3:gap_forces:R:3 energy=-4263.086740318749 name=tbu gap_energy=-4263.086740318749 config_type=start_10 pbc="F F F"
C        0.24528320       0.57255981      -0.99842971      -2.58296423       6.00522596       6.61072184      -2.58296423       6.00522596       6.61072184
C        1.22229281       1.58301864      -0.05261133      -5.68991884      -5.97853232      -4.89636222      -5.68991884      -5.97853232      -4.89636222
C       -2.03108555       0.89160620      -0.70362974       7.80637184      -2.06426528      -0.46490264       7.80637184      -2.06426528      -0.46490264
C        1.82216521      -2.54366881       0.64537308      -0.45726740      -0.03178226      -0.43523083      -0.45726740      -0.03178226      -0.43523083
H       -0.47598014      -0.10220406      -4.20996783       0.00945650       0.01335426       0.09925105       0.00945650       0.01335426       0.09925105
H       -1.27905101       2.66747753       1.94637701      -3.15507838       0.60367753       0.01485669      -3.15507838       0.60367753       0.01485669
H        3.12169257      -0.65221008       0.97621475       0.07143935       1.50152840       3.69727176       0.07143935       1.50152840       3.69727176
H        1.02650088       2.10483818       1.66892025       3.41563906      -1.09327511      -0.72217345       3.41563906      -1.09327511      -0.72217345
H       -2.16762609      -1.15758967       0.10285814      -0.72915660      -0.29469449      -1.87831021      -0.72915660      -0.29469449      -1.87831021
H       -4.01535173      -0.00306155      -0.00616382      -2.42524508       1.08260799       0.47357925      -2.42524508       1.08260799       0.47357925
H       -1.60708267      -0.52832710       2.23292194       2.87651760      -1.04857304       2.11314473       2.87651760      -1.04857304       2.11314473
H        0.63118579      -2.38111225       2.48154102      -2.43893161       2.20721554      -0.34808670      -2.43893161       2.20721554      -0.34808670
H        3.11153186      -1.41292442      -1.16175118      -0.27689072      -1.09527190      -3.60521420      -0.27689072      -1.09527190      -3.60521420
H       -0.19160870      -1.36500443      -0.93046843       3.57602851       0.19278472      -0.65854507       3.57602851       0.19278472      -0.65854507
14
Properties=species:S:1:pos:R:3:forces:R:3:gap_forces:R:3 energy=-4229.794109356819 name=tbu gap_energy=-4229.794109356819 config_type=start_11 pbc="F F F"
C       -2.35398133       0.12343686       0.55059012      12.76965762       0.63401215      -2.48295542      12.76965762       0.63401215      -2.48295542
C       -0.45788255       1.90379241       0.71785601     -48.77476580     -17.60577875     142.56935020     -48.77476580     -17.60577875     142.56935020
C       -0.42086385      -0.00692794       0.67934147     -10.50355509       7.32062037       3.77712574     -10.50355509       7.32062037       3.77712574
C        0.60454721      -2.56812155      -0.08170900      -2.45634807       2.98165947      -4.32088405      -2.45634807       2.98165947      -4.32088405
H       -1.20273322      -0.62425291      -1.56525204     -24.17536250      -5.26486374       3.24503175     -24.17536250      -5.26486374       3.24503175
H        0.07954862       0.23304592      -1.48973221       9.84450208       4.94406016      -1.90665194       9.84450208       4.94406016      -1.90665194
H        0.22653252       3.67762819      -0.74103909       1.15994893      -0.34170406      -0.81885189       1.15994893      -0.34170406      -0.81885189
H       -0.30831710       1.95447322       0.24696380      41.00178069      11.85505032    -138.45641338      41.00178069      11.85505032    -138.45641338
H       -0.64604487       0.13498723       2.77844349      -0.66549926      -2.25515252       2.80234820      -0.66549926      -2.25515252       2.80234820
H       -0.78539909       0.83334059      -0.20458450      -4.77093971       7.45179193      11.69448897      -4.77093971       7.45179193      11.69448897
H       -0.47638178      -3.80446152      -1.91227346       0.12075188       0.22633170       0.19003824       0.12075188       0.22633170       0.19003824
H        1.33386144      -1.06151412      -0.17559507      -0.46807845      -1.70984387       2.98293120      -0.46807845      -1.70984387       2.98293120
H        1.28511126       1.07726657      -1.03127931      12.64811576       7.42493745      -9.79984978      12.64811576       7.42493745      -9.79984978
H       -0.38681720      -0.65780695      -1.72971960      14.26979191     -15.66112060      -9.47570786      14.26979191     -15.66112060      -9.47570786
14
Properties=species:S:1:pos:R:3:forces:R:3:gap_forces:R:3 energy=-4255.052743670338 name=tbu gap_energy=-4255.052743670338 config_type=start_12 pbc="F F F"
C        0.10944121       1.48598050       0.51995116      -1.53215879      -5.56951037       4.56514430      -1.53215879      -5.56951037       4.56514430
C       -0.15448748       2.38521458       1.85161820      -3.52104264      -4.86284222      -3.62617644      -3.52104264      -4.86284222      -3.62617644
C       -2.84533468       0.82804739       1.75025595      12.21789853      -2.19440198      -5.94328367      12.21789853      -2.19440198      -5.94328367
C       -0.60104636      -1.57478145       1.78378552      -4.87436053      -7.98503479       6.49000611      -4.87436053      -7.98503479       6.49000611
H        0.87643105      -0.79748422      -1.45063889      -3.86092787       0.27394394      -4.04228689      -3.86092787       0.27394394      -4.04228689
H       -1.82431558       0.48327234       1.27868545       0.16838751       8.20731261      -0.43470782       0.16838751       8.20731261      -0.43470782
H        1.59822660       1.24562662       0.73275037      -2.73910859       0.66440973       3.17109650      -2.73910859       0.66440973       3.17109650
H       -0.67578478      -0.59130524       0.91776510       0.27553423       3.30019497      -4.08587843       0.27553423       3.30019497      -4.08587843
H       -0.41412341      -0.70226807       1.51765806       7.81509739      17.54886171       5.16280554       7.81509739      17.54886171       5.16280554
H       -2.58827174       1.92884878       0.99751623      -3.51930024      -3.72421125       4.00004485      -3.51930024      -3.72421125       4.00004485
H       -0.93982763      -1.33785845      -0.83063903      -7.05766750      -1.78717343      -8.97920075      -7.05766750      -1.78717343      -8.97920075