
                                 *****************
                                 * O   R   C   A *
                                 *****************

           --- An Ab Initio, DFT and Semiempirical electronic structure package ---

                  #######################################################
                  #                        -***-                        #
                  #          Department of theory and spectroscopy      #
                  #               Directorship: Frank Neese             #
                  #        Max Planck Institute fuer Kohlenforschung    #
                  #                Kaiser Wilhelm Platz 1               #
                  #                 D-45470 Muelheim/Ruhr               #
                  #                      Germany                        #
                  #                                                     #
                  #                  All rights reserved                #
                  #                        -***-                        #
                  #######################################################


                         Program Version 4.2.1 -  RELEASE  -


 With contributions from (in alphabetic order):
   Daniel Aravena         : Magnetic Suceptibility
   Michael Atanasov       : Ab Initio Ligand Field Theory (pilot matlab implementation)
   Alexander A. Auer      : GIAO ZORA, VPT2
   Ute Becker             : Parallelization
   Giovanni Bistoni       : ED, misc. LED, open-shell LED, HFLD
   Martin Brehm           : Molecular dynamics
   Dmytro Bykov           : SCF Hessian
   Vijay G. Chilkuri      : MRCI spin determinant printing, contributions to CSF-ICE
   Dipayan Datta          : RHF DLPNO-CCSD density
   Achintya Kumar Dutta   : EOM-CC, STEOM-CC
   Dmitry Ganyushin       : Spin-Orbit,Spin-Spin,Magnetic field MRCI
   Miquel Garcia          : C-PCM Hessian, Gaussian charge scheme
   Yang Guo               : DLPNO-NEVPT2, CIM, IAO-localization
   Andreas Hansen         : Spin unrestricted coupled pair/coupled cluster methods
   Benjamin Helmich-Paris : CASSCF linear response (MC-RPA)
   Lee Huntington         : MR-EOM, pCC
   Robert Izsak           : Overlap fitted RIJCOSX, COSX-SCS-MP3, EOM
   Christian Kollmar      : KDIIS, OOCD, Brueckner-CCSD(T), CCSD density
   Simone Kossmann        : Meta GGA functionals, TD-DFT gradient, OOMP2, MP2 Hessian
   Martin Krupicka        : AUTO-CI
   Lucas Lang             : DCDCAS
   Dagmar Lenk            : GEPOL surface, SMD
   Dimitrios Liakos       : Extrapolation schemes; Compound Job, initial MDCI parallelization
   Dimitrios Manganas     : Further ROCIS development; embedding schemes
   Dimitrios Pantazis     : SARC Basis sets
   Taras Petrenko         : DFT Hessian,TD-DFT gradient, ASA, ECA, R-Raman, ABS, FL, XAS/XES, NRVS
   Peter Pinski           : DLPNO-MP2, DLPNO-MP2 Gradient
   Christoph Reimann      : Effective Core Potentials
   Marius Retegan         : Local ZFS, SOC
   Christoph Riplinger    : Optimizer, TS searches, QM/MM, DLPNO-CCSD(T), (RO)-DLPNO pert. Triples
   Tobias Risthaus        : Range-separated hybrids, TD-DFT gradient, RPA, STAB
   Michael Roemelt        : Original ROCIS implementation
   Masaaki Saitow         : Open-shell DLPNO-CCSD energy and density
   Barbara Sandhoefer     : DKH picture change effects
   Avijit Sen             : IP-ROCIS
   Kantharuban Sivalingam : CASSCF convergence, NEVPT2, FIC-MRCI
   Bernardo de Souza      : ESD, SOC TD-DFT
   Georgi Stoychev        : AutoAux, RI-MP2 NMR
   Willem Van den Heuvel  : Paramagnetic NMR
   Boris Wezisla          : Elementary symmetry handling
   Frank Wennmohs         : Technical directorship


 We gratefully acknowledge several colleagues who have allowed us to
 interface, adapt or use parts of their codes:
   Stefan Grimme, W. Hujo, H. Kruse,             : VdW corrections, initial TS optimization,
                  C. Bannwarth                     DFT functionals, gCP, sTDA/sTD-DF
   Ed Valeev, F. Pavosevic, A. Kumar             : LibInt (2-el integral package), F12 methods
   Garnet Chan, S. Sharma, J. Yang, R. Olivares  : DMRG
   Ulf Ekstrom                                   : XCFun DFT Library
   Mihaly Kallay                                 : mrcc  (arbitrary order and MRCC methods)
   Andreas Klamt, Michael Diedenhofen            : otool_cosmo (COSMO solvation model)
   Jiri Pittner, Ondrej Demel                    : Mk-CCSD
   Frank Weinhold                                : gennbo (NPA and NBO analysis)
   Christopher J. Cramer and Donald G. Truhlar   : smd solvation model
   Lars Goerigk                                  : TD-DFT with DH, B97 family of functionals
   V. Asgeirsson, H. Jonsson                     : NEB implementation
   FAccTs GmbH                                   : IRC, NEB, NEB-TS, Multilevel, MM, QM/MM, CI optimization
   S Lehtola, MJT Oliveira, MAL Marques          : LibXC Library


 Your calculation uses the libint2 library for the computation of 2-el integrals
 For citations please refer to: http://libint.valeyev.net

 Your ORCA version has been built with support for libXC version: 4.2.3
 For citations please refer to: https://tddft.org/programs/libxc/

 This ORCA versions uses:
   CBLAS   interface :  Fast vector & matrix operations
   LAPACKE interface :  Fast linear algebra routines
   SCALAPACK package :  Parallel linear algebra routines


Your calculation utilizes the atom-pairwise dispersion correction
with the Becke-Johnson damping scheme (D3BJ)
Cite in your paper:
S.Grimme, S.Ehrlich, L.Goerigk, J Comput Chem, (2011), 32, 1456–1465 
S.Grimme, J.Antony, S.Ehrlich and H.Krieg, J.Chem.Phys., 132, (2010), 154104 
   

----- Orbital basis set information -----
Your calculation utilizes the basis: def2-SV(P)
   F. Weigend and R. Ahlrichs, Phys. Chem. Chem. Phys. 7, 3297 (2005).

----- AuxJ basis set information -----
Your calculation utilizes the auxiliary basis: def2/J
   F. Weigend, Phys. Chem. Chem. Phys. 8, 1057 (2006).

================================================================================
                                        WARNINGS
                       Please study these warnings very carefully!
================================================================================


WARNING: Geometry Optimization
  ===> : Switching off AutoStart
         For restart on a previous wavefunction, please use MOREAD

INFO   : the flag for use of LIBINT has been found!

================================================================================
                                       INPUT FILE
================================================================================
NAME = orca6.inp
|  1> ! UKS B3LYP def2-SV(P) def2/J D3BJ Opt
|  2> %scf Convergence VeryTight
|  3> SmearTemp 2000
|  4> maxiter 500
|  5> end
|  6> *xyz 0 1
|  7> C -3.802273 1.33239 0.156888
|  8> C -4.048994 -0.089034 -0.262073
|  9> C -3.12148 -1.075268 0.395266
| 10> C -1.877851 -1.350586 -0.40877
| 11> C -0.880539 -0.265247 -0.069112
| 12> C 0.539426 -0.817957 -0.105728
| 13> C 1.430128 0.207403 0.551661
| 14> C 2.568737 0.625298 -0.337728
| 15> C 3.81404 -0.105186 0.08028
| 16> C 5.03628 0.766929 -0.172622
| 17> H -4.703484 1.798514 0.629877
| 18> H -3.590392 1.958984 -0.743724
| 19> H -2.983107 1.447649 0.880566
| 20> H -5.084123 -0.353825 0.072337
| 21> H -4.020887 -0.164543 -1.374999
| 22> H -2.773335 -0.692635 1.388146
| 23> H -3.673267 -2.020749 0.627173
| 24> H -1.484304 -2.358104 -0.12954
| 25> H -2.071519 -1.401763 -1.502193
| 26> H -1.04888 0.026938 0.998403
| 27> H -1.022067 0.586393 -0.747264
| 28> H 0.517628 -1.735392 0.534811
| 29> H 0.817768 -1.024276 -1.148993
| 30> H 1.845153 -0.15931 1.524559
| 31> H 0.874265 1.142717 0.815234
| 32> H 2.373489 0.402671 -1.413262
| 33> H 2.7816 1.715164 -0.298394
| 34> H 3.784317 -0.314246 1.168944
| 35> H 3.911876 -1.05914 -0.481499
| 36> H 5.03746 1.102078 -1.225193
| 37> H 4.896022 1.669887 0.472599
| 38> H 5.958313 0.204244 0.08053
| 39> *
| 40> 
| 41>                          ****END OF INPUT****
================================================================================

                       *****************************
                       * Geometry Optimization Run *
                       *****************************

Geometry optimization settings:
Update method            Update   .... BFGS
Choice of coordinates    CoordSys .... Z-matrix Internals
Initial Hessian          InHess   .... Almoef's Model

Convergence Tolerances:
Energy Change            TolE     ....  5.0000e-06 Eh
Max. Gradient            TolMAXG  ....  3.0000e-04 Eh/bohr
RMS Gradient             TolRMSG  ....  1.0000e-04 Eh/bohr
Max. Displacement        TolMAXD  ....  4.0000e-03 bohr
RMS Displacement         TolRMSD  ....  2.0000e-03 bohr
Strict Convergence                ....  False
------------------------------------------------------------------------------
                        ORCA OPTIMIZATION COORDINATE SETUP
------------------------------------------------------------------------------

The optimization will be done in new redundant internal coordinates
Making redundant internal coordinates   ...  (new redundants) done
Evaluating the initial hessian          ...  (Almloef) done
Evaluating the coordinates              ...  done
Calculating the B-matrix                .... done
Calculating the G-matrix                .... done
Diagonalizing the G-matrix              .... done
Small eigenvalue found = 3.766e-03
Small eigenvalue found = 9.747e-03
Small eigenvalue found = 1.597e-02
Small eigenvalue found = 2.002e-02
The first mode is                       ....   82
The number of degrees of freedom        ....   90

    -----------------------------------------------------------------
                    Redundant Internal Coordinates


    -----------------------------------------------------------------
         Definition                    Initial Value    Approx d2E/dq
    -----------------------------------------------------------------
      1. B(C   1,C   0)                  1.5023         0.413621   
      2. B(C   2,C   1)                  1.5050         0.409504   
      3. B(C   3,C   2)                  1.5063         0.407584   
      4. B(C   4,C   3)                  1.5126         0.398233   
      5. B(C   5,C   4)                  1.5242         0.381646   
      6. B(C   6,C   5)                  1.5089         0.403637   
      7. B(C   7,C   6)                  1.5040         0.410984   
      8. B(C   8,C   7)                  1.5030         0.412474   
      9. B(C   9,C   8)                  1.5226         0.383822   
     10. B(H  10,C   0)                  1.1195         0.323173   
     11. B(H  11,C   0)                  1.1174         0.325600   
     12. B(H  12,C   0)                  1.0991         0.348257   
     13. B(H  13,C   1)                  1.1196         0.323033   
     14. B(H  14,C   1)                  1.1158         0.327491   
     15. B(H  15,C   2)                  1.1196         0.323039   
     16. B(H  16,C   2)                  1.1190         0.323697   
     17. B(H  17,C   3)                  1.1171         0.325961   
     18. B(H  18,C   3)                  1.1116         0.332605   
     19. B(H  19,C   4)                  1.1195         0.323106   
     20. B(H  20,C   4)                  1.0978         0.349901   
     21. B(H  21,C   5)                  1.1191         0.323555   
     22. B(H  22,C   5)                  1.0993         0.348015   
     23. B(H  23,C   6)                  1.1195         0.323129   
     24. B(H  24,C   6)                  1.1195         0.323123   
     25. B(H  25,C   7)                  1.1156         0.327835   
     26. B(H  26,C   7)                  1.1112         0.333174   
     27. B(H  27,C   8)                  1.1090         0.335879   
     28. B(H  28,C   8)                  1.1114         0.332883   
     29. B(H  29,C   9)                  1.1046         0.341243   
     30. B(H  30,C   9)                  1.1186         0.324159   
     31. B(H  31,C   9)                  1.1094         0.335287   
     32. A(C   1,C   0,H  12)          113.9067         0.327990   
     33. A(C   1,C   0,H  11)          109.6905         0.324379   
     34. A(H  11,C   0,H  12)          109.3022         0.284803   
     35. A(C   1,C   0,H  10)          112.3086         0.323980   
     36. A(H  10,C   0,H  11)          105.0524         0.281518   
     37. A(H  10,C   0,H  12)          106.1494         0.284472   
     38. A(H  13,C   1,H  14)          107.7702         0.281751   
     39. A(C   2,C   1,H  14)          112.0713         0.324154   
     40. A(C   0,C   1,H  14)          109.7579         0.324687   
     41. A(C   0,C   1,H  13)          106.9972         0.323957   
     42. A(C   0,C   1,C   2)          113.3916         0.375645   
     43. A(C   2,C   1,H  13)          106.5205         0.323426   
     44. A(C   3,C   2,H  15)          106.2074         0.323178   
     45. A(C   3,C   2,H  16)          111.3035         0.323285   
     46. A(C   1,C   2,H  16)          109.8956         0.323535   
     47. A(C   1,C   2,H  15)          110.7951         0.323427   
     48. A(C   1,C   2,C   3)          113.2945         0.374692   
     49. A(H  15,C   2,H  16)          104.9701         0.281245   
     50. A(C   4,C   3,H  18)          111.6404         0.323494   
     51. A(C   4,C   3,H  17)          111.0224         0.322426   
     52. A(C   2,C   3,C   4)          107.0588         0.372893   
     53. A(C   2,C   3,H  17)          108.8011         0.323655   
     54. A(C   2,C   3,H  18)          112.9310         0.324729   
     55. A(H  17,C   3,H  18)          105.4097         0.282824   
     56. A(C   5,C   4,H  19)          104.9301         0.319729   
     57. A(C   3,C   4,H  19)          107.5928         0.321961   
     58. A(C   3,C   4,C   5)          110.4055         0.368699   
     59. A(C   5,C   4,H  20)          112.7414         0.323927   
     60. A(C   3,C   4,H  20)          109.4459         0.326200   
     61. A(H  19,C   4,H  20)          111.5420         0.284671   
     62. A(C   4,C   5,C   6)          107.0403         0.369554   
     63. A(C   6,C   5,H  22)          113.0501         0.326634   
     64. A(C   4,C   5,H  22)          109.0714         0.323640   
     65. A(C   6,C   5,H  21)          108.6147         0.322747   
     66. A(C   4,C   5,H  21)          105.3894         0.319801   
     67. A(H  21,C   5,H  22)          113.2196         0.284493   
     68. A(C   5,C   6,C   7)          112.2132         0.374297   
     69. A(H  23,C   6,H  24)          104.6638         0.281179   
     70. A(C   7,C   6,H  24)          106.4382         0.323632   
     71. A(C   5,C   6,H  24)          112.1609         0.322676   
     72. A(C   7,C   6,H  23)          108.9212         0.323633   
     73. A(C   5,C   6,H  23)          112.0156         0.322677   
     74. A(C   6,C   7,C   8)          109.1313         0.375698   
     75. A(H  25,C   7,H  26)          105.2720         0.283151   
     76. A(C   8,C   7,H  26)          107.9465         0.325458   
     77. A(C   6,C   7,H  26)          113.3671         0.325265   
     78. A(C   8,C   7,H  25)          108.4305         0.324595   
     79. A(C   6,C   7,H  25)          112.4686         0.324402   
     80. A(H  27,C   8,H  28)          109.6802         0.284180   
     81. A(C   9,C   8,H  28)          109.6948         0.321590   
     82. A(C   7,C   8,H  28)          110.4578         0.325411   
     83. A(C   9,C   8,H  27)          107.0106         0.322062   
     84. A(C   7,C   8,H  27)          110.0253         0.325891   
     85. A(C   7,C   8,C   9)          109.9078         0.371296   
     86. A(H  30,C   9,H  31)          112.4570         0.282933   
     87. A(H  29,C   9,H  31)          111.7413         0.285201   
     88. A(C   8,C   9,H  31)          109.7993         0.321969   
     89. A(H  29,C   9,H  30)          107.7484         0.283708   
     90. A(C   8,C   9,H  30)          105.4198         0.320196   
     91. A(C   8,C   9,H  29)          109.4450         0.322900   
     92. D(C   2,C   1,C   0,H  11)    122.8590         0.013546   
     93. D(C   2,C   1,C   0,H  12)     -0.0059         0.013546   
     94. D(H  13,C   1,C   0,H  11)   -119.9990         0.013546   
     95. D(H  14,C   1,C   0,H  11)     -3.3258         0.013546   
     96. D(H  13,C   1,C   0,H  10)     -3.5770         0.013546   
     97. D(C   2,C   1,C   0,H  10)   -120.7190         0.013546   
     98. D(H  14,C   1,C   0,H  12)   -126.1908         0.013546   
     99. D(H  14,C   1,C   0,H  10)    113.0962         0.013546   
    100. D(H  13,C   1,C   0,H  12)    117.1361         0.013546   
    101. D(C   3,C   2,C   1,H  13)    150.5938         0.013285   
    102. D(C   3,C   2,C   1,H  14)     32.9625         0.013285   
    103. D(H  15,C   2,C   1,H  13)    -90.1593         0.013285   
    104. D(H  15,C   2,C   1,H  14)    152.2093         0.013285   
    105. D(C   3,C   2,C   1,C   0)    -91.9858         0.013285   
    106. D(H  16,C   2,C   1,H  13)     25.3905         0.013285   
    107. D(H  16,C   2,C   1,H  14)    -92.2409         0.013285   
    108. D(H  16,C   2,C   1,C   0)    142.8108         0.013285   
    109. D(H  15,C   2,C   1,C   0)     27.2610         0.013285   
    110. D(H  18,C   3,C   2,C   1)    -38.6205         0.013164   
    111. D(H  17,C   3,C   2,H  16)    -30.8453         0.013164   
    112. D(H  18,C   3,C   2,H  15)   -160.4694         0.013164   
    113. D(H  17,C   3,C   2,H  15)     82.8631         0.013164   
    114. D(C   4,C   3,C   2,H  15)    -37.1938         0.013164   
    115. D(H  17,C   3,C   2,C   1)   -155.2879         0.013164   
    116. D(H  18,C   3,C   2,H  16)     85.8222         0.013164   
    117. D(C   4,C   3,C   2,H  16)   -150.9022         0.013164   
    118. D(C   4,C   3,C   2,C   1)     84.6552         0.013164   
    119. D(C   5,C   4,C   3,H  18)    -89.5662         0.012587   
    120. D(C   5,C   4,C   3,H  17)     27.7388         0.012587   
    121. D(H  19,C   4,C   3,C   2)     32.3895         0.012587   
    122. D(C   5,C   4,C   3,C   2)    146.3642         0.012587   
    123. D(H  20,C   4,C   3,H  18)     35.0966         0.012587   
    124. D(H  20,C   4,C   3,H  17)    152.4016         0.012587   
    125. D(H  20,C   4,C   3,C   2)    -88.9730         0.012587   
    126. D(H  19,C   4,C   3,H  18)    156.4591         0.012587   
    127. D(H  19,C   4,C   3,H  17)    -86.2360         0.012587   
    128. D(H  22,C   5,C   4,H  20)    -52.1932         0.011603   
    129. D(H  22,C   5,C   4,H  19)   -173.7814         0.011603   
    130. D(H  22,C   5,C   4,C   3)     70.5639         0.011603   
    131. D(H  21,C   5,C   4,H  20)   -174.0519         0.011603   
    132. D(H  21,C   5,C   4,H  19)     64.3599         0.011603   
    133. D(H  21,C   5,C   4,C   3)    -51.2948         0.011603   
    134. D(C   6,C   5,C   4,H  20)     70.4401         0.011603   
    135. D(C   6,C   5,C   4,H  19)    -51.1481         0.011603   
    136. D(C   6,C   5,C   4,C   3)   -166.8028         0.011603   
    137. D(H  24,C   6,C   5,H  22)    114.8611         0.012918   
    138. D(H  24,C   6,C   5,H  21)   -118.5952         0.012918   
    139. D(H  24,C   6,C   5,C   4)     -5.2593         0.012918   
    140. D(H  23,C   6,C   5,H  22)   -127.7824         0.012918   
    141. D(H  23,C   6,C   5,H  21)     -1.2387         0.012918   
    142. D(H  23,C   6,C   5,C   4)    112.0971         0.012918   
    143. D(C   7,C   6,C   5,H  22)     -4.8991         0.012918   
    144. D(C   7,C   6,C   5,H  21)    121.6446         0.012918   
    145. D(C   7,C   6,C   5,C   4)   -125.0195         0.012918   
    146. D(H  26,C   7,C   6,H  23)    -96.0086         0.013378   
    147. D(H  26,C   7,C   6,C   5)    139.3790         0.013378   
    148. D(H  25,C   7,C   6,H  24)   -102.9533         0.013378   
    149. D(H  25,C   7,C   6,H  23)    144.7038         0.013378   
    150. D(H  25,C   7,C   6,C   5)     20.0915         0.013378   
    151. D(C   8,C   7,C   6,H  24)    136.6762         0.013378   
    152. D(C   8,C   7,C   6,H  23)     24.3333         0.013378   
    153. D(H  26,C   7,C   6,H  24)     16.3343         0.013378   
    154. D(C   8,C   7,C   6,C   5)   -100.2790         0.013378   
    155. D(H  28,C   8,C   7,H  26)   -145.5737         0.013473   
    156. D(H  28,C   8,C   7,C   6)     90.8097         0.013473   
    157. D(H  27,C   8,C   7,H  26)     93.1924         0.013473   
    158. D(H  27,C   8,C   7,H  25)   -153.2434         0.013473   
    159. D(H  27,C   8,C   7,C   6)    -30.4242         0.013473   
    160. D(C   9,C   8,C   7,H  26)    -24.3986         0.013473   
    161. D(H  28,C   8,C   7,H  25)    -32.0095         0.013473   
    162. D(C   9,C   8,C   7,H  25)     89.1656         0.013473   
    163. D(C   9,C   8,C   7,C   6)   -148.0152         0.013473   
    164. D(H  31,C   9,C   8,H  28)    -55.0624         0.011729   
    165. D(H  31,C   9,C   8,H  27)     63.8563         0.011729   
    166. D(H  31,C   9,C   8,C   7)   -176.6942         0.011729   
    167. D(H  30,C   9,C   8,H  28)   -176.4246         0.011729   
    168. D(H  30,C   9,C   8,H  27)    -57.5059         0.011729   
    169. D(H  30,C   9,C   8,C   7)     61.9436         0.011729   
    170. D(H  29,C   9,C   8,H  28)     67.9350         0.011729   
    171. D(H  29,C   9,C   8,H  27)   -173.1464         0.011729   
    172. D(H  29,C   9,C   8,C   7)    -53.6969         0.011729   
    -----------------------------------------------------------------

Number of atoms                         .... 32
Number of degrees of freedom            .... 172

Time needed for optimization step       :     1.81 sec

         *************************************************************
         *                GEOMETRY OPTIMIZATION CYCLE   1            *
         *************************************************************
---------------------------------
CARTESIAN COORDINATES (ANGSTROEM)
---------------------------------
  C     -3.802273    1.332390    0.156888
  C     -4.048994   -0.089034   -0.262073
  C     -3.121480   -1.075268    0.395266
  C     -1.877851   -1.350586   -0.408770
  C     -0.880539   -0.265247   -0.069112
  C      0.539426   -0.817957   -0.105728
  C      1.430128    0.207403    0.551661
  C      2.568737    0.625298   -0.337728
  C      3.814040   -0.105186    0.080280
  C      5.036280    0.766929   -0.172622
  H     -4.703484    1.798514    0.629877
  H     -3.590392    1.958984   -0.743724
  H     -2.983107    1.447649    0.880566
  H     -5.084123   -0.353825    0.072337
  H     -4.020887   -0.164543   -1.374999
  H     -2.773335   -0.692635    1.388146
  H     -3.673267   -2.020749    0.627173
  H     -1.484304   -2.358104   -0.129540
  H     -2.071519   -1.401763   -1.502193
  H     -1.048880    0.026938    0.998403
  H     -1.022067    0.586393   -0.747264
  H      0.517628   -1.735392    0.534811
  H      0.817768   -1.024276   -1.148993
  H      1.845153   -0.159310    1.524559
  H      0.874265    1.142717    0.815234
  H      2.373489    0.402671   -1.413262
  H      2.781600    1.715164   -0.298394
  H      3.784317   -0.314246    1.168944
  H      3.911876   -1.059140   -0.481499
  H      5.037460    1.102078   -1.225193
  H      4.896022    1.669887    0.472599
  H      5.958313    0.204244    0.080530

----------------------------
CARTESIAN COORDINATES (A.U.)
----------------------------
  NO LB      ZA    FRAG     MASS         X           Y           Z
   0 C     6.0000    0    12.011   -7.185255    2.517852    0.296475
   1 C     6.0000    0    12.011   -7.651490   -0.168250   -0.495246
   2 C     6.0000    0    12.011   -5.898742   -2.031962    0.746944
   3 C     6.0000    0    12.011   -3.548624   -2.552238   -0.772463
   4 C     6.0000    0    12.011   -1.663978   -0.501244   -0.130603
   5 C     6.0000    0    12.011    1.019367   -1.545715   -0.199797
   6 C     6.0000    0    12.011    2.702550    0.391935    1.042488
   7 C     6.0000    0    12.011    4.854209    1.181642   -0.638213
   8 C     6.0000    0    12.011    7.207491   -0.198773    0.151707
   9 C     6.0000    0    12.011    9.517190    1.449286   -0.326208
  10 H     1.0000    0     1.008   -8.888297    3.398699    1.190295
  11 H     1.0000    0     1.008   -6.784858    3.701943   -1.405435
  12 H     1.0000    0     1.008   -5.637255    2.735660    1.664029
  13 H     1.0000    0     1.008   -9.607600   -0.668632    0.136697
  14 H     1.0000    0     1.008   -7.598375   -0.310941   -2.598372
  15 H     1.0000    0     1.008   -5.240844   -1.308890    2.623216
  16 H     1.0000    0     1.008   -6.941469   -3.818662    1.185185
  17 H     1.0000    0     1.008   -2.804928   -4.456171   -0.244795
  18 H     1.0000    0     1.008   -3.914604   -2.648948   -2.838733
  19 H     1.0000    0     1.008   -1.982096    0.050905    1.886708
  20 H     1.0000    0     1.008   -1.931427    1.108122   -1.412124
  21 H     1.0000    0     1.008    0.978175   -3.279416    1.010646
  22 H     1.0000    0     1.008    1.545358   -1.935601   -2.171282
  23 H     1.0000    0     1.008    3.486834   -0.301052    2.880999
  24 H     1.0000    0     1.008    1.652121    2.159422    1.540569
  25 H     1.0000    0     1.008    4.485244    0.760938   -2.670678
  26 H     1.0000    0     1.008    5.256462    3.241190   -0.563883
  27 H     1.0000    0     1.008    7.151323   -0.593839    2.208984
  28 H     1.0000    0     1.008    7.392374   -2.001485   -0.909901
  29 H     1.0000    0     1.008    9.519420    2.082626   -2.315279
  30 H     1.0000    0     1.008    9.252141    3.155629    0.893083
  31 H     1.0000    0     1.008   11.259580    0.385965    0.152180

--------------------------------
INTERNAL COORDINATES (ANGSTROEM)
--------------------------------
 C      0   0   0     0.000000000000     0.00000000     0.00000000
 C      1   0   0     1.502280186629     0.00000000     0.00000000
 C      2   1   0     1.505003084340   113.39155088     0.00000000
 C      3   2   1     1.506282503404   113.29453223   268.01419740
 C      4   3   2     1.512600253613   107.05877758    84.65519638
 C      5   4   3     1.524181641663   110.40552775   146.36419021
 C      6   5   4     1.508931237573   107.04029444   193.19721441
 C      7   6   5     1.504021103318   112.21318079   234.98047487
 C      8   7   6     1.503035969007   109.13132588   259.72099748
 C      9   8   7     1.522634103266   109.90783597   211.98477275
 H      1   2   3     1.119451403152   112.30859587   239.28104857
 H      1   2   3     1.117414682891   109.69051132   122.85900876
 H      1   2   3     1.099103007148   113.90669418     0.00000000
 H      2   1   3     1.119569724681   106.99720217   117.14198210
 H      2   1   3     1.115838650525   109.75790757   233.81514824
 H      3   2   1     1.119564043775   110.79512225    27.26102643
 H      3   2   1     1.119010308880   109.89561852   142.81082397
 H      4   3   2     1.117112865575   108.80110976   204.71209338
 H      4   3   2     1.111620545187   112.93103717   321.37953421
 H      5   4   3     1.119508392881   107.59281498    32.38945635
 H      5   4   3     1.097821023431   109.44594623   271.02699605
 H      6   5   4     1.119130172299   105.38936495   308.70523706
 H      6   5   4     1.099292344624   109.07141879    70.56390438
 H      7   6   5     1.119488585649   112.01558544   112.09713542
 H      7   6   5     1.119493939106   112.16087086   354.74066311
 H      8   7   6     1.115552754373   112.46859675    20.09150376
 H      8   7   6     1.111155127910   113.36713756   139.37904088
 H      9   8   7     1.108953941886   110.02534269   329.57581145
 H      9   8   7     1.111393612476   110.45776509    90.80969944
 H     10   9   8     1.104641097661   109.44496582   306.30312159
 H     10   9   8     1.118622186070   105.41980316    61.94359095
 H     10   9   8     1.109434629628   109.79926107   183.30580886

---------------------------
INTERNAL COORDINATES (A.U.)
---------------------------
 C      0   0   0     0.000000000000     0.00000000     0.00000000
 C      1   0   0     2.838898129145     0.00000000     0.00000000
 C      2   1   0     2.844043660109   113.39155088     0.00000000
 C      3   2   1     2.846461411751   113.29453223   268.01419740
 C      4   3   2     2.858400229428   107.05877758    84.65519638
 C      5   4   3     2.880285881093   110.40552775   146.36419021
 C      6   5   4     2.851466793933   107.04029444   193.19721441
 C      7   6   5     2.842187984910   112.21318079   234.98047487
 C      8   7   6     2.840326350856   109.13132588   259.72099748
 C      9   8   7     2.877361457342   109.90783597   211.98477275
 H      1   2   3     2.115456572190   112.30859587   239.28104857
 H      1   2   3     2.111607728687   109.69051132   122.85900876
 H      1   2   3     2.077003676478   113.90669418     0.00000000
 H      2   1   3     2.115680167476   106.99720217   117.14198210
 H      2   1   3     2.108629459137   109.75790757   233.81514824
 H      3   2   1     2.115669432120   110.79512225    27.26102643
 H      3   2   1     2.114623024817   109.89561852   142.81082397
 H      4   3   2     2.111037376617   108.80110976   204.71209338
 H      4   3   2     2.100658395244   112.93103717   321.37953421
 H      5   4   3     2.115564267171   107.59281498    32.38945635
 H      5   4   3     2.074581078347   109.44594623   271.02699605
 H      6   5   4     2.114849533853   105.38936495   308.70523706
 H      6   5   4     2.077361472456   109.07141879    70.56390438
 H      7   6   5     2.115526836927   112.01558544   112.09713542
 H      7   6   5     2.115536953494   112.16087086   354.74066311
 H      8   7   6     2.108089193706   112.46859675    20.09150376
 H      8   7   6     2.099778884052   113.36713756   139.37904088
 H      9   8   7     2.095619245297   110.02534269   329.57581145
 H      9   8   7     2.100229554570   110.45776509    90.80969944
 H     10   9   8     2.087469150854   109.44496582   306.30312159
 H     10   9   8     2.113889579001   105.41980316    61.94359095
 H     10   9   8     2.096527613485   109.79926107   183.30580886

---------------------
BASIS SET INFORMATION
---------------------
There are 2 groups of distinct atoms

 Group   1 Type C   : 7s4p1d contracted to 3s2p1d pattern {511/31/1}
 Group   2 Type H   : 4s contracted to 2s pattern {31}

Atom   0C    basis set group =>   1
Atom   1C    basis set group =>   1
Atom   2C    basis set group =>   1
Atom   3C    basis set group =>   1
Atom   4C    basis set group =>   1
Atom   5C    basis set group =>   1
Atom   6C    basis set group =>   1
Atom   7C    basis set group =>   1
Atom   8C    basis set group =>   1
Atom   9C    basis set group =>   1
Atom  10H    basis set group =>   2
Atom  11H    basis set group =>   2
Atom  12H    basis set group =>   2
Atom  13H    basis set group =>   2
Atom  14H    basis set group =>   2
Atom  15H    basis set group =>   2
Atom  16H    basis set group =>   2
Atom  17H    basis set group =>   2
Atom  18H    basis set group =>   2
Atom  19H    basis set group =>   2
Atom  20H    basis set group =>   2
Atom  21H    basis set group =>   2
Atom  22H    basis set group =>   2
Atom  23H    basis set group =>   2
Atom  24H    basis set group =>   2
Atom  25H    basis set group =>   2
Atom  26H    basis set group =>   2
Atom  27H    basis set group =>   2
Atom  28H    basis set group =>   2
Atom  29H    basis set group =>   2
Atom  30H    basis set group =>   2
Atom  31H    basis set group =>   2
---------------------------------
AUXILIARY/J BASIS SET INFORMATION
---------------------------------
There are 2 groups of distinct atoms

 Group   1 Type C   : 12s5p4d2f1g contracted to 6s4p3d1f1g pattern {711111/2111/211/2/1}
 Group   2 Type H   : 5s2p1d contracted to 3s1p1d pattern {311/2/1}

Atom   0C    basis set group =>   1
Atom   1C    basis set group =>   1
Atom   2C    basis set group =>   1
Atom   3C    basis set group =>   1
Atom   4C    basis set group =>   1
Atom   5C    basis set group =>   1
Atom   6C    basis set group =>   1
Atom   7C    basis set group =>   1
Atom   8C    basis set group =>   1
Atom   9C    basis set group =>   1
Atom  10H    basis set group =>   2
Atom  11H    basis set group =>   2
Atom  12H    basis set group =>   2
Atom  13H    basis set group =>   2
Atom  14H    basis set group =>   2
Atom  15H    basis set group =>   2
Atom  16H    basis set group =>   2
Atom  17H    basis set group =>   2
Atom  18H    basis set group =>   2
Atom  19H    basis set group =>   2
Atom  20H    basis set group =>   2
Atom  21H    basis set group =>   2
Atom  22H    basis set group =>   2
Atom  23H    basis set group =>   2
Atom  24H    basis set group =>   2
Atom  25H    basis set group =>   2
Atom  26H    basis set group =>   2
Atom  27H    basis set group =>   2
Atom  28H    basis set group =>   2
Atom  29H    basis set group =>   2
Atom  30H    basis set group =>   2
Atom  31H    basis set group =>   2
------------------------------------------------------------------------------
                           ORCA GTO INTEGRAL CALCULATION
------------------------------------------------------------------------------

                         BASIS SET STATISTICS AND STARTUP INFO

 # of primitive gaussian shells          ...  208
 # of primitive gaussian functions       ...  328
 # of contracted shells                  ...  104
 # of contracted basis functions         ...  184
 Highest angular momentum                ...    2
 Maximum contraction depth               ...    5
 Integral package used                   ... LIBINT
 Integral threshhold            Thresh   ...  1.000e-12
 Primitive cut-off              TCut     ...  1.000e-14


------------------------------ INTEGRAL EVALUATION ----------------------------


 * One electron integrals 
 Pre-screening matrix                    ... done
 Shell pair data                         ... done (   0.001 sec)

-------------------------------------------------------------------------------
                                 ORCA SCF
-------------------------------------------------------------------------------

------------
SCF SETTINGS
------------
Hamiltonian:
 Density Functional     Method          .... DFT(GTOs)
 Exchange Functional    Exchange        .... B88
   X-Alpha parameter    XAlpha          ....  0.666667
   Becke's b parameter  XBeta           ....  0.004200
 Correlation Functional Correlation     .... LYP
 LDA part of GGA corr.  LDAOpt          .... VWN-5
 Gradients option       PostSCFGGA      .... off
 Hybrid DFT is turned on
   Fraction HF Exchange ScalHFX         ....  0.200000
   Scaling of DF-GGA-X  ScalDFX         ....  0.720000
   Scaling of DF-GGA-C  ScalDFC         ....  0.810000
   Scaling of DF-LDA-C  ScalLDAC        ....  1.000000
   Perturbative correction              ....  0.000000
   Density functional embedding theory  .... OFF
   NL short-range parameter             ....  4.800000


General Settings:
 Integral files         IntName         .... orca6
 Hartree-Fock type      HFTyp           .... UHF
 Total Charge           Charge          ....    0
 Multiplicity           Mult            ....    1
 Number of Electrons    NEL             ....   82
 Basis Dimension        Dim             ....  184
 Nuclear Repulsion      ENuc            ....    545.9915805581 Eh

Convergence Acceleration:
 DIIS                   CNVDIIS         .... on
   Start iteration      DIISMaxIt       ....    12
   Startup error        DIISStart       ....  0.200000
   # of expansion vecs  DIISMaxEq       ....     5
   Bias factor          DIISBfac        ....   1.050
   Max. coefficient     DIISMaxC        ....  10.000
 Newton-Raphson         CNVNR           .... off
 SOSCF                  CNVSOSCF        .... off
 Level Shifting         CNVShift        .... on
   Level shift para.    LevelShift      ....    0.2500
   Turn off err/grad.   ShiftErr        ....    0.0010
 Zerner damping         CNVZerner       .... off
 Static damping         CNVDamp         .... on
   Fraction old density DampFac         ....    0.7000
   Max. Damping (<1)    DampMax         ....    0.9800
   Min. Damping (>=0)   DampMin         ....    0.0000
   Turn off err/grad.   DampErr         ....    0.1000
 Fernandez-Rico         CNVRico         .... off

SCF Procedure:
 Maximum # iterations   MaxIter         ....   500
 SCF integral mode      SCFMode         .... Direct
   Integral package                     .... LIBINT
 Reset frequency        DirectResetFreq ....    20
 Integral Threshold     Thresh          ....  1.000e-12 Eh
 Primitive CutOff       TCut            ....  1.000e-14 Eh

Convergence Tolerance:
 Convergence Check Mode ConvCheckMode   .... Total+1el-Energy
 Convergence forced     ConvForced      .... 0
 Energy Change          TolE            ....  1.000e-09 Eh
 1-El. energy change                    ....  1.000e-06 Eh
 DIIS Error             TolErr          ....  1.000e-08


Diagonalization of the overlap matrix:
Smallest eigenvalue                        ... 1.151e-03
Time for diagonalization                   ...    0.004 sec
Threshold for overlap eigenvalues          ... 1.000e-08
Number of eigenvalues below threshold      ... 0
Time for construction of square roots      ...    4.279 sec
Total time needed                          ...    4.283 sec

-------------------
DFT GRID GENERATION
-------------------

General Integration Accuracy     IntAcc      ...  4.340
Radial Grid Type                 RadialGrid  ... Gauss-Chebyshev
Angular Grid (max. acc.)         AngularGrid ... Lebedev-110
Angular grid pruning method      GridPruning ... 3 (G Style)
Weight generation scheme         WeightScheme... Becke
Basis function cutoff            BFCut       ...    1.0000e-12
Integration weight cutoff        WCut        ...    1.0000e-14
Grids for H and He will be reduced by one unit

# of grid points (after initial pruning)     ...  34028 (   0.0 sec)
# of grid points (after weights+screening)   ...  30613 (   0.2 sec)
nearest neighbour list constructed           ...    0.0 sec
Grid point re-assignment to atoms done       ...    0.0 sec
Grid point division into batches done        ...    0.0 sec
Reduced shell lists constructed in    0.2 sec

Total number of grid points                  ...    30613
Total number of batches                      ...      494
Average number of points per batch           ...       61
Average number of grid points per atom       ...      957
Average number of shells per batch           ...    67.43 (64.83%)
Average number of basis functions per batch  ...   115.29 (62.66%)
Average number of large shells per batch     ...    50.40 (74.75%)
Average number of large basis fcns per batch ...    86.86 (75.34%)
Maximum spatial batch extension              ...  20.18, 21.13, 21.19 au
Average spatial batch extension              ...   3.19,  3.42,  3.64 au

Time for grid setup =    9.433 sec

------------------------------
INITIAL GUESS: MODEL POTENTIAL
------------------------------
Loading Hartree-Fock densities                     ... done
Calculating cut-offs                               ... done
Setting up the integral package                    ... done
Initializing the effective Hamiltonian             ... done
Starting the Coulomb interaction                   ... done (   0.2 sec)
Reading the grid                                   ... done
Mapping shells                                     ... done
Starting the XC term evaluation                    ... done (   0.4 sec)
  promolecular density results
     # of electrons  =     81.976800049
     EX              =    -57.977952910
     EC              =     -2.610394049
     EX+EC           =    -60.588346959
Transforming the Hamiltonian                       ... done (   0.0 sec)
Diagonalizing the Hamiltonian                      ... done (   0.0 sec)
Back transforming the eigenvectors                 ... done (   0.0 sec)
Now organizing SCF variables                       ... done
                      ------------------
                      INITIAL GUESS DONE (  10.2 sec)
                      ------------------
--------------
SCF ITERATIONS
--------------
ITER       Energy         Delta-E        Max-DP      RMS-DP      [F,P]     Damp
               ***  Starting incremental Fock matrix formation  ***
  0   -393.2542191466   0.000000000000 0.04209616  0.00144161  0.1719995 0.7000
  1   -393.4397824084  -0.185563261831 0.02584732  0.00102131  0.0892742 0.7000
                               ***Turning on DIIS***
  2   -393.5130252666  -0.073242858175 0.03567292  0.00166749  0.0334256 0.0000
  3   -393.6120982125  -0.099072945880 0.01731727  0.00069124  0.0493003 0.0000
  4   -393.6452107365  -0.033112523994 0.00383112  0.00021030  0.0114784 0.0000
  5   -393.6468695096  -0.001658773172 0.00136260  0.00007281  0.0023832 0.0000
  6   -393.6469675227  -0.000098013091 0.00062955  0.00003761  0.0008181 0.0000
  7   -393.6469756160  -0.000008093279 0.00020819  0.00000457  0.0003856 0.0000
  8   -393.6469763151  -0.000000699102 0.00004026  0.00000128  0.0000721 0.0000
  9   -393.6469763453  -0.000000030224 0.00001611  0.00000048  0.0000283 0.0000
 10   -393.6469763506  -0.000000005268 0.00000753  0.00000017  0.0000130 0.0000
 11   -393.6469763514  -0.000000000851 0.00000127  0.00000006  0.0000030 0.0000
 12   -393.6469763515  -0.000000000031 0.00000041  0.00000001  0.0000008 0.0000
 13   -393.6469763515  -0.000000000006 0.00000015  0.00000000  0.0000002 0.0000
 14   -393.6469763515  -0.000000000019 0.00000005  0.00000000  0.0000001 0.0000
                 **** Energy Check signals convergence ****

 Fermi smearing  (ALPHA): E(HOMO(Eh)) = -0.272677 MUE = -0.108475 gap=   8.936 eV
 Fermi smearing   (BETA): E(HOMO(Eh)) = -0.272677 MUE = -0.108475 gap=   8.936 eV

N_FOD(alpha) =  0.000000
 N_FOD(beta) =  0.000000
       N_FOD =  0.000000

               *****************************************************
               *                     SUCCESS                       *
               *           SCF CONVERGED AFTER  15 CYCLES          *
               *****************************************************

Setting up the final grid:

General Integration Accuracy     IntAcc      ...  4.670
Radial Grid Type                 RadialGrid  ... Gauss-Chebyshev
Angular Grid (max. acc.)         AngularGrid ... Lebedev-302
Angular grid pruning method      GridPruning ... 3 (G Style)
Weight generation scheme         WeightScheme... Becke
Basis function cutoff            BFCut       ...    1.0000e-12
Integration weight cutoff        WCut        ...    1.0000e-14
Grids for H and He will be reduced by one unit

# of grid points (after initial pruning)     ... 136788 (   0.1 sec)
# of grid points (after weights+screening)   ... 120642 (   0.7 sec)
nearest neighbour list constructed           ...    0.0 sec
Grid point re-assignment to atoms done       ...    0.0 sec
Grid point division into batches done        ...    0.3 sec
Reduced shell lists constructed in    1.0 sec

Total number of grid points                  ...   120642
Total number of batches                      ...     1900
Average number of points per batch           ...       63
Average number of grid points per atom       ...     3770
Average number of shells per batch           ...    62.57 (60.16%)
Average number of basis functions per batch  ...   106.63 (57.95%)
Average number of large shells per batch     ...    46.04 (73.58%)
Average number of large basis fcns per batch ...    78.97 (74.06%)
Maximum spatial batch extension              ...  20.51, 18.85, 18.10 au
Average spatial batch extension              ...   2.12,  2.24,  2.27 au

Final grid set up in    2.5 sec
Final integration                            ... done (   9.2 sec)
Change in XC energy                          ...    -0.000615803
Integrated number of electrons               ...    82.000410746
Previous integrated no of electrons          ...    81.994206945

----------------
TOTAL SCF ENERGY
----------------

Total Energy       :         -393.64759216 Eh          -10711.69555 eV

Components:
Nuclear Repulsion  :          545.99158056 Eh           14857.18623 eV
Electronic Energy  :         -939.63917271 Eh          -25568.88179 eV
One Electron Energy:        -1610.95939748 Eh          -43836.43381 eV
Two Electron Energy:          671.32022477 Eh           18267.55202 eV

Virial components:
Potential Energy   :         -783.38446499 Eh          -21316.97503 eV
Kinetic Energy     :          389.73687284 Eh           10605.27947 eV
Virial Ratio       :            2.01003426


DFT components:
N(Alpha)           :       41.000205372821 electrons
N(Beta)            :       41.000205372821 electrons
N(Total)           :       82.000410745643 electrons
E(X)               :      -47.187690294129 Eh       
E(C)               :       -3.090332692562 Eh       
E(XC)              :      -50.278022986691 Eh       
DFET-embed. en.    :        0.000000000000 Eh       

---------------
SCF CONVERGENCE
---------------

  Last Energy change         ...   -2.5352e-11  Tolerance :   1.0000e-09
  Last MAX-Density change    ...    7.8267e-09  Tolerance :   1.0000e-08
  Last RMS-Density change    ...    2.5732e-10  Tolerance :   1.0000e-09
  Last DIIS Error            ...    1.0992e-08  Tolerance :   1.0000e-08

             **** THE GBW FILE WAS UPDATED (orca6.gbw) ****
             **** DENSITY FILE WAS UPDATED (orca6.scfp) ****
             **** ENERGY FILE WAS UPDATED (orca6.en.tmp) ****
             **** THE GBW FILE WAS UPDATED (orca6.gbw) ****
             **** DENSITY FILE WAS UPDATED (orca6.scfp) ****
----------------
ORBITAL ENERGIES
----------------
                 SPIN UP ORBITALS
  NO   OCC          E(Eh)            E(eV) 
   0   1.0000     -10.167336      -276.6673 
   1   1.0000     -10.164862      -276.6000 
   2   1.0000     -10.164326      -276.5854 
   3   1.0000     -10.164174      -276.5812 
   4   1.0000     -10.163778      -276.5705 
   5   1.0000     -10.163483      -276.5624 
   6   1.0000     -10.162378      -276.5324 
   7   1.0000     -10.162341      -276.5314 
   8   1.0000     -10.162174      -276.5268 
   9   1.0000     -10.161975      -276.5214 
  10   1.0000      -0.813940       -22.1484 
  11   1.0000      -0.795164       -21.6375 
  12   1.0000      -0.762098       -20.7377 
  13   1.0000      -0.722961       -19.6728 
  14   1.0000      -0.679524       -18.4908 
  15   1.0000      -0.631936       -17.1958 
  16   1.0000      -0.588613       -16.0170 
  17   1.0000      -0.571532       -15.5522 
  18   1.0000      -0.561803       -15.2874 
  19   1.0000      -0.554487       -15.0884 
  20   1.0000      -0.479343       -13.0436 
  21   1.0000      -0.457888       -12.4598 
  22   1.0000      -0.456230       -12.4146 
  23   1.0000      -0.442554       -12.0425 
  24   1.0000      -0.428936       -11.6719 
  25   1.0000      -0.422698       -11.5022 
  26   1.0000      -0.402017       -10.9394 
  27   1.0000      -0.400015       -10.8850 
  28   1.0000      -0.386011       -10.5039 
  29   1.0000      -0.372430       -10.1343 
  30   1.0000      -0.356241        -9.6938 
  31   1.0000      -0.353886        -9.6297 
  32   1.0000      -0.342530        -9.3207 
  33   1.0000      -0.339079        -9.2268 
  34   1.0000      -0.330602        -8.9961 
  35   1.0000      -0.327385        -8.9086 
  36   1.0000      -0.324252        -8.8233 
  37   1.0000      -0.310434        -8.4473 
  38   1.0000      -0.304455        -8.2846 
  39   1.0000      -0.299660        -8.1542 
  40   1.0000      -0.272677        -7.4199 
  41   0.0000       0.055727         1.5164 
  42   0.0000       0.062965         1.7134 
  43   0.0000       0.064482         1.7547 
  44   0.0000       0.069628         1.8947 
  45   0.0000       0.075905         2.0655 
  46   0.0000       0.081327         2.2130 
  47   0.0000       0.096044         2.6135 
  48   0.0000       0.100084         2.7234 
  49   0.0000       0.117016         3.1842 
  50   0.0000       0.123090         3.3494 
  51   0.0000       0.127970         3.4822 
  52   0.0000       0.135198         3.6789 
  53   0.0000       0.141907         3.8615 
  54   0.0000       0.146708         3.9921 
  55   0.0000       0.150734         4.1017 
  56   0.0000       0.160126         4.3572 
  57   0.0000       0.167046         4.5456 
  58   0.0000       0.177848         4.8395 
  59   0.0000       0.184643         5.0244 
  60   0.0000       0.189968         5.1693 
  61   0.0000       0.202279         5.5043 
  62   0.0000       0.206636         5.6229 
  63   0.0000       0.218255         5.9390 
  64   0.0000       0.234064         6.3692 
  65   0.0000       0.247446         6.7334 
  66   0.0000       0.258256         7.0275 
  67   0.0000       0.273495         7.4422 
  68   0.0000       0.281522         7.6606 
  69   0.0000       0.300215         8.1693 
  70   0.0000       0.308171         8.3858 
  71   0.0000       0.314864         8.5679 
  72   0.0000       0.397111        10.8059 
  73   0.0000       0.430488        11.7142 
  74   0.0000       0.435344        11.8463 
  75   0.0000       0.435962        11.8631 
  76   0.0000       0.449665        12.2360 
  77   0.0000       0.468549        12.7499 
  78   0.0000       0.479356        13.0439 
  79   0.0000       0.486067        13.2265 
  80   0.0000       0.500485        13.6189 
  81   0.0000       0.509494        13.8640 
  82   0.0000       0.537942        14.6381 
  83   0.0000       0.558786        15.2053 
  84   0.0000       0.564508        15.3610 
  85   0.0000       0.576159        15.6781 
  86   0.0000       0.598186        16.2775 
  87   0.0000       0.609434        16.5835 
  88   0.0000       0.640019        17.4158 
  89   0.0000       0.644147        17.5281 
  90   0.0000       0.645811        17.5734 
  91   0.0000       0.649572        17.6758 
  92   0.0000       0.652914        17.7667 
  93   0.0000       0.663367        18.0511 
  94   0.0000       0.668914        18.2021 
  95   0.0000       0.674778        18.3616 
  96   0.0000       0.683538        18.6000 
  97   0.0000       0.686726        18.6868 
  98   0.0000       0.691004        18.8032 
  99   0.0000       0.696572        18.9547 
 100   0.0000       0.699761        19.0415 
 101   0.0000       0.704895        19.1812 
 102   0.0000       0.706037        19.2123 
 103   0.0000       0.707779        19.2596 
 104   0.0000       0.711560        19.3625 
 105   0.0000       0.716077        19.4854 
 106   0.0000       0.720869        19.6159 
 107   0.0000       0.722655        19.6645 
 108   0.0000       0.726235        19.7619 
 109   0.0000       0.729832        19.8597 
 110   0.0000       0.730314        19.8728 
 111   0.0000       0.734624        19.9901 
 112   0.0000       0.748582        20.3699 
 113   0.0000       0.754271        20.5248 
 114   0.0000       0.754870        20.5411 
 115   0.0000       0.763145        20.7662 
 116   0.0000       0.768219        20.9043 
 117   0.0000       0.771112        20.9830 
 118   0.0000       0.788864        21.4661 
 119   0.0000       0.801742        21.8165 
 120   0.0000       0.810164        22.0457 
 121   0.0000       0.829733        22.5782 
 122   0.0000       0.885465        24.0947 
 123   0.0000       0.906335        24.6626 
 124   0.0000       0.965174        26.2637 
 125   0.0000       0.981437        26.7063 
 126   0.0000       1.011143        27.5146 
 127   0.0000       1.030760        28.0484 
 128   0.0000       1.057033        28.7633 
 129   0.0000       1.105093        30.0711 
 130   0.0000       1.147844        31.2344 
 131   0.0000       1.170207        31.8429 
 132   0.0000       1.198596        32.6155 
 133   0.0000       1.292113        35.1602 
 134   0.0000       1.366820        37.1931 
 135   0.0000       1.383450        37.6456 
 136   0.0000       1.532801        41.7096 
 137   0.0000       1.555679        42.3322 
 138   0.0000       1.639115        44.6026 
 139   0.0000       1.640928        44.6519 
 140   0.0000       1.690222        45.9933 
 141   0.0000       1.742517        47.4163 
 142   0.0000       1.780384        48.4467 
 143   0.0000       1.808596        49.2144 
 144   0.0000       1.836162        49.9645 
 145   0.0000       1.851805        50.3902 
 146   0.0000       1.864620        50.7389 
 147   0.0000       1.868565        50.8462 
 148   0.0000       1.900528        51.7160 
 149   0.0000       1.924620        52.3716 
 150   0.0000       1.927649        52.4540 
 151   0.0000       1.945508        52.9400 
 152   0.0000       1.954578        53.1868 
 153   0.0000       1.959231        53.3134 
 154   0.0000       1.997304        54.3494 
 155   0.0000       2.023524        55.0629 
 156   0.0000       2.026750        55.1507 
 157   0.0000       2.062070        56.1118 
 158   0.0000       2.070790        56.3491 
 159   0.0000       2.100005        57.1440 
 160   0.0000       2.124046        57.7982 
 161   0.0000       2.133895        58.0662 
 162   0.0000       2.168530        59.0087 
 163   0.0000       2.196884        59.7803 
 164   0.0000       2.225847        60.5684 
 165   0.0000       2.254889        61.3587 
 166   0.0000       2.270029        61.7706 
 167   0.0000       2.292822        62.3909 
 168   0.0000       2.321840        63.1805 
 169   0.0000       2.333471        63.4970 
 170   0.0000       2.359501        64.2053 
 171   0.0000       2.387787        64.9750 
 172   0.0000       2.429174        66.1012 
 173   0.0000       2.453174        66.7543 
 174   0.0000       2.491409        67.7947 
 175   0.0000       2.526514        68.7499 
 176   0.0000       2.549915        69.3867 
 177   0.0000       2.579754        70.1987 
 178   0.0000       2.612500        71.0897 
 179   0.0000       2.684555        73.0505 
 180   0.0000       2.699391        73.4542 
 181   0.0000       2.732245        74.3482 
 182   0.0000       2.780492        75.6610 
 183   0.0000       2.830989        77.0351 

                 SPIN DOWN ORBITALS
  NO   OCC          E(Eh)            E(eV) 
   0   1.0000     -10.167336      -276.6673 
   1   1.0000     -10.164862      -276.6000 
   2   1.0000     -10.164326      -276.5854 
   3   1.0000     -10.164174      -276.5812 
   4   1.0000     -10.163778      -276.5705 
   5   1.0000     -10.163483      -276.5624 
   6   1.0000     -10.162378      -276.5324 
   7   1.0000     -10.162341      -276.5314 
   8   1.0000     -10.162174      -276.5268 
   9   1.0000     -10.161975      -276.5214 
  10   1.0000      -0.813940       -22.1484 
  11   1.0000      -0.795164       -21.6375 
  12   1.0000      -0.762098       -20.7377 
  13   1.0000      -0.722961       -19.6728 
  14   1.0000      -0.679524       -18.4908 
  15   1.0000      -0.631936       -17.1958 
  16   1.0000      -0.588613       -16.0170 
  17   1.0000      -0.571532       -15.5522 
  18   1.0000      -0.561803       -15.2874 
  19   1.0000      -0.554487       -15.0884 
  20   1.0000      -0.479343       -13.0436 
  21   1.0000      -0.457888       -12.4598 
  22   1.0000      -0.456230       -12.4146 
  23   1.0000      -0.442554       -12.0425 
  24   1.0000      -0.428936       -11.6719 
  25   1.0000      -0.422698       -11.5022 
  26   1.0000      -0.402017       -10.9394 
  27   1.0000      -0.400015       -10.8850 
  28   1.0000      -0.386011       -10.5039 
  29   1.0000      -0.372430       -10.1343 
  30   1.0000      -0.356241        -9.6938 
  31   1.0000      -0.353886        -9.6297 
  32   1.0000      -0.342530        -9.3207 
  33   1.0000      -0.339079        -9.2268 
  34   1.0000      -0.330602        -8.9961 
  35   1.0000      -0.327385        -8.9086 
  36   1.0000      -0.324252        -8.8233 
  37   1.0000      -0.310434        -8.4473 
  38   1.0000      -0.304455        -8.2846 
  39   1.0000      -0.299660        -8.1542 
  40   1.0000      -0.272677        -7.4199 
  41   0.0000       0.055727         1.5164 
  42   0.0000       0.062965         1.7134 
  43   0.0000       0.064482         1.7547 
  44   0.0000       0.069628         1.8947 
  45   0.0000       0.075905         2.0655 
  46   0.0000       0.081327         2.2130 
  47   0.0000       0.096044         2.6135 
  48   0.0000       0.100084         2.7234 
  49   0.0000       0.117016         3.1842 
  50   0.0000       0.123090         3.3494 
  51   0.0000       0.127970         3.4822 
  52   0.0000       0.135198         3.6789 
  53   0.0000       0.141907         3.8615 
  54   0.0000       0.146708         3.9921 
  55   0.0000       0.150734         4.1017 
  56   0.0000       0.160126         4.3572 
  57   0.0000       0.167046         4.5456 
  58   0.0000       0.177848         4.8395 
  59   0.0000       0.184643         5.0244 
  60   0.0000       0.189968         5.1693 
  61   0.0000       0.202279         5.5043 
  62   0.0000       0.206636         5.6229 
  63   0.0000       0.218255         5.9390 
  64   0.0000       0.234064         6.3692 
  65   0.0000       0.247446         6.7334 
  66   0.0000       0.258256         7.0275 
  67   0.0000       0.273495         7.4422 
  68   0.0000       0.281522         7.6606 
  69   0.0000       0.300215         8.1693 
  70   0.0000       0.308171         8.3858 
  71   0.0000       0.314864         8.5679 
  72   0.0000       0.397111        10.8059 
  73   0.0000       0.430488        11.7142 
  74   0.0000       0.435344        11.8463 
  75   0.0000       0.435962        11.8631 
  76   0.0000       0.449665        12.2360 
  77   0.0000       0.468549        12.7499 
  78   0.0000       0.479356        13.0439 
  79   0.0000       0.486067        13.2265 
  80   0.0000       0.500485        13.6189 
  81   0.0000       0.509494        13.8640 
  82   0.0000       0.537942        14.6381 
  83   0.0000       0.558786        15.2053 
  84   0.0000       0.564508        15.3610 
  85   0.0000       0.576159        15.6781 
  86   0.0000       0.598186        16.2775 
  87   0.0000       0.609434        16.5835 
  88   0.0000       0.640019        17.4158 
  89   0.0000       0.644147        17.5281 
  90   0.0000       0.645811        17.5734 
  91   0.0000       0.649572        17.6758 
  92   0.0000       0.652914        17.7667 
  93   0.0000       0.663367        18.0511 
  94   0.0000       0.668914        18.2021 
  95   0.0000       0.674778        18.3616 
  96   0.0000       0.683538        18.6000 
  97   0.0000       0.686726        18.6868 
  98   0.0000       0.691004        18.8032 
  99   0.0000       0.696572        18.9547 
 100   0.0000       0.699761        19.0415 
 101   0.0000       0.704895        19.1812 
 102   0.0000       0.706037        19.2123 
 103   0.0000       0.707779        19.2596 
 104   0.0000       0.711560        19.3625 
 105   0.0000       0.716077        19.4854 
 106   0.0000       0.720869        19.6159 
 107   0.0000       0.722655        19.6645 
 108   0.0000       0.726235        19.7619 
 109   0.0000       0.729832        19.8597 
 110   0.0000       0.730314        19.8728 
 111   0.0000       0.734624        19.9901 
 112   0.0000       0.748582        20.3699 
 113   0.0000       0.754271        20.5248 
 114   0.0000       0.754870        20.5411 
 115   0.0000       0.763145        20.7662 
 116   0.0000       0.768219        20.9043 
 117   0.0000       0.771112        20.9830 
 118   0.0000       0.788864        21.4661 
 119   0.0000       0.801742        21.8165 
 120   0.0000       0.810164        22.0457 
 121   0.0000       0.829733        22.5782 
 122   0.0000       0.885465        24.0947 
 123   0.0000       0.906335        24.6626 
 124   0.0000       0.965174        26.2637 
 125   0.0000       0.981437        26.7063 
 126   0.0000       1.011143        27.5146 
 127   0.0000       1.030760        28.0484 
 128   0.0000       1.057033        28.7633 
 129   0.0000       1.105093        30.0711 
 130   0.0000       1.147844        31.2344 
 131   0.0000       1.170207        31.8429 
 132   0.0000       1.198596        32.6155 
 133   0.0000       1.292113        35.1602 
 134   0.0000       1.366820        37.1931 
 135   0.0000       1.383450        37.6456 
 136   0.0000       1.532801        41.7096 
 137   0.0000       1.555679        42.3322 
 138   0.0000       1.639115        44.6026 
 139   0.0000       1.640928        44.6519 
 140   0.0000       1.690222        45.9933 
 141   0.0000       1.742517        47.4163 
 142   0.0000       1.780384        48.4467 
 143   0.0000       1.808596        49.2144 
 144   0.0000       1.836162        49.9645 
 145   0.0000       1.851805        50.3902 
 146   0.0000       1.864620        50.7389 
 147   0.0000       1.868565        50.8462 
 148   0.0000       1.900528        51.7160 
 149   0.0000       1.924620        52.3716 
 150   0.0000       1.927649        52.4540 
 151   0.0000       1.945508        52.9400 
 152   0.0000       1.954578        53.1868 
 153   0.0000       1.959231        53.3134 
 154   0.0000       1.997304        54.3494 
 155   0.0000       2.023524        55.0629 
 156   0.0000       2.026750        55.1507 
 157   0.0000       2.062070        56.1118 
 158   0.0000       2.070790        56.3491 
 159   0.0000       2.100005        57.1440 
 160   0.0000       2.124046        57.7982 
 161   0.0000       2.133895        58.0662 
 162   0.0000       2.168530        59.0087 
 163   0.0000       2.196884        59.7803 
 164   0.0000       2.225847        60.5684 
 165   0.0000       2.254889        61.3587 
 166   0.0000       2.270029        61.7706 
 167   0.0000       2.292822        62.3909 
 168   0.0000       2.321840        63.1805 
 169   0.0000       2.333471        63.4970 
 170   0.0000       2.359501        64.2053 
 171   0.0000       2.387787        64.9750 
 172   0.0000       2.429174        66.1012 
 173   0.0000       2.453174        66.7543 
 174   0.0000       2.491409        67.7947 
 175   0.0000       2.526514        68.7499 
 176   0.0000       2.549915        69.3867 
 177   0.0000       2.579754        70.1987 
 178   0.0000       2.612500        71.0897 
 179   0.0000       2.684555        73.0505 
 180   0.0000       2.699391        73.4542 
 181   0.0000       2.732245        74.3482 
 182   0.0000       2.780492        75.6610 
 183   0.0000       2.830989        77.0351 

                    ********************************
                    * MULLIKEN POPULATION ANALYSIS *
                    ********************************

------------------------------------------
FOD BASED MULLIKEN REDUCED ORBITAL CHARGES
------------------------------------------
  0 C s       :    -0.000000  s :    -0.000000
      pz      :     0.000000  p :     0.000000
      px      :     0.000000
      py      :     0.000000
      dz2     :     0.000000  d :     0.000000
      dxz     :     0.000000
      dyz     :     0.000000
      dx2y2   :     0.000000
      dxy     :     0.000000
  1 C s       :    -0.000000  s :    -0.000000
      pz      :     0.000000  p :     0.000000
      px      :     0.000000
      py      :     0.000000
      dz2     :     0.000000  d :     0.000000
      dxz     :     0.000000
      dyz     :     0.000000
      dx2y2   :     0.000000
      dxy     :     0.000000
  2 C s       :    -0.000000  s :    -0.000000
      pz      :     0.000000  p :     0.000000
      px      :     0.000000
      py      :     0.000000
      dz2     :     0.000000  d :     0.000000
      dxz     :     0.000000
      dyz     :     0.000000
      dx2y2   :     0.000000
      dxy     :     0.000000
  3 C s       :    -0.000000  s :    -0.000000
      pz      :     0.000000  p :     0.000000
      px      :     0.000000
      py      :     0.000000
      dz2     :     0.000000  d :     0.000000
      dxz     :     0.000000
      dyz     :     0.000000
      dx2y2   :     0.000000
      dxy     :     0.000000
  4 C s       :    -0.000000  s :    -0.000000
      pz      :     0.000000  p :     0.000000
      px      :     0.000000
      py      :     0.000000
      dz2     :     0.000000  d :     0.000000
      dxz     :     0.000000
      dyz     :     0.000000
      dx2y2   :     0.000000
      dxy     :     0.000000
  5 C s       :    -0.000000  s :    -0.000000
      pz      :    -0.000000  p :     0.000000
      px      :     0.000000
      py      :     0.000000
      dz2     :     0.000000  d :     0.000000
      dxz     :     0.000000
      dyz     :     0.000000
      dx2y2   :     0.000000
      dxy     :     0.000000
  6 C s       :    -0.000000  s :    -0.000000
      pz      :     0.000000  p :     0.000000
      px      :     0.000000
      py      :     0.000000
      dz2     :     0.000000  d :     0.000000
      dxz     :     0.000000
      dyz     :     0.000000
      dx2y2   :     0.000000
      dxy     :     0.000000
  7 C s       :    -0.000000  s :    -0.000000
      pz      :     0.000000  p :     0.000000
      px      :     0.000000
      py      :     0.000000
      dz2     :     0.000000  d :     0.000000
      dxz     :     0.000000
      dyz     :     0.000000
      dx2y2   :     0.000000
      dxy     :     0.000000
  8 C s       :    -0.000000  s :    -0.000000
      pz      :     0.000000  p :     0.000000
      px      :     0.000000
      py      :     0.000000
      dz2     :     0.000000  d :     0.000000
      dxz     :     0.000000
      dyz     :     0.000000
      dx2y2   :     0.000000
      dxy     :     0.000000
  9 C s       :    -0.000000  s :    -0.000000
      pz      :     0.000000  p :     0.000000
      px      :     0.000000
      py      :     0.000000
      dz2     :     0.000000  d :     0.000000
      dxz     :     0.000000
      dyz     :     0.000000
      dx2y2   :     0.000000
      dxy     :     0.000000
 10 H s       :     0.000000  s :     0.000000
 11 H s       :     0.000000  s :     0.000000
 12 H s       :     0.000000  s :     0.000000
 13 H s       :     0.000000  s :     0.000000
 14 H s       :     0.000000  s :     0.000000
 15 H s       :     0.000000  s :     0.000000
 16 H s       :     0.000000  s :     0.000000
 17 H s       :     0.000000  s :     0.000000
 18 H s       :     0.000000  s :     0.000000
 19 H s       :     0.000000  s :     0.000000
 20 H s       :     0.000000  s :     0.000000
 21 H s       :     0.000000  s :     0.000000
 22 H s       :     0.000000  s :     0.000000
 23 H s       :     0.000000  s :     0.000000
 24 H s       :     0.000000  s :     0.000000
 25 H s       :     0.000000  s :     0.000000
 26 H s       :     0.000000  s :     0.000000
 27 H s       :     0.000000  s :     0.000000
 28 H s       :     0.000000  s :     0.000000
 29 H s       :     0.000000  s :     0.000000
 30 H s       :     0.000000  s :     0.000000
 31 H s       :     0.000000  s :     0.000000


                     *******************************
                     * LOEWDIN POPULATION ANALYSIS *
                     *******************************

-------------------------------------------
LOEWDIN ATOMIC CHARGES AND SPIN POPULATIONS
-------------------------------------------
   0 C :   -0.325040    0.000000
   1 C :   -0.219548    0.000000
   2 C :   -0.206276    0.000000
   3 C :   -0.211387    0.000000
   4 C :   -0.210886    0.000000
   5 C :   -0.205087    0.000000
   6 C :   -0.208094    0.000000
   7 C :   -0.213322    0.000000
   8 C :   -0.219585    0.000000
   9 C :   -0.314406    0.000000
  10 H :    0.109307    0.000000
  11 H :    0.109609    0.000000
  12 H :    0.110362    0.000000
  13 H :    0.108395    0.000000
  14 H :    0.107684    0.000000
  15 H :    0.102453    0.000000
  16 H :    0.099338    0.000000
  17 H :    0.101572    0.000000
  18 H :    0.105785    0.000000
  19 H :    0.104068    0.000000
  20 H :    0.111514    0.000000
  21 H :    0.106968    0.000000
  22 H :    0.107794    0.000000
  23 H :    0.105347    0.000000
  24 H :    0.105620    0.000000
  25 H :    0.106052    0.000000
  26 H :    0.100898    0.000000
  27 H :    0.103019    0.000000
  28 H :    0.105577    0.000000
  29 H :    0.107449    0.000000
  30 H :    0.107275    0.000000
  31 H :    0.107547    0.000000

----------------------------------------------------
LOEWDIN REDUCED ORBITAL CHARGES AND SPIN POPULATIONS
----------------------------------------------------
CHARGE
  0 C s       :     2.950452  s :     2.950452
      pz      :     1.109916  p :     3.299545
      px      :     1.115364
      py      :     1.074265
      dz2     :     0.007283  d :     0.075043
      dxz     :     0.017907
      dyz     :     0.019636
      dx2y2   :     0.016349
      dxy     :     0.013868
  1 C s       :     2.902333  s :     2.902333
      pz      :     1.081751  p :     3.223607
      px      :     1.078297
      py      :     1.063558
      dz2     :     0.027035  d :     0.093609
      dxz     :     0.008364
      dyz     :     0.014637
      dx2y2   :     0.025429
      dxy     :     0.018143
  2 C s       :     2.907452  s :     2.907452
      pz      :     1.068478  p :     3.203415
      px      :     1.061493
      py      :     1.073445
      dz2     :     0.019961  d :     0.095409
      dxz     :     0.020880
      dyz     :     0.013908
      dx2y2   :     0.015549
      dxy     :     0.025111
  3 C s       :     2.907301  s :     2.907301
      pz      :     1.079776  p :     3.211101
      px      :     1.059906
      py      :     1.071419
      dz2     :     0.026673  d :     0.092985
      dxz     :     0.015933
      dyz     :     0.007739
      dx2y2   :     0.019525
      dxy     :     0.023116
  4 C s       :     2.913641  s :     2.913641
      pz      :     1.077697  p :     3.202405
      px      :     1.045060
      py      :     1.079648
      dz2     :     0.021308  d :     0.094841
      dxz     :     0.009823
      dyz     :     0.020739
      dx2y2   :     0.020628
      dxy     :     0.022343
  5 C s       :     2.909293  s :     2.909293
      pz      :     1.078603  p :     3.203409
      px      :     1.051877
      py      :     1.072929
      dz2     :     0.019957  d :     0.092385
      dxz     :     0.013188
      dyz     :     0.020057
      dx2y2   :     0.020767
      dxy     :     0.018416
  6 C s       :     2.906424  s :     2.906424
      pz      :     1.073627  p :     3.208641
      px      :     1.060266
      py      :     1.074748
      dz2     :     0.017958  d :     0.093029
      dxz     :     0.021969
      dyz     :     0.015534
      dx2y2   :     0.013746
      dxy     :     0.023821
  7 C s       :     2.905593  s :     2.905593
      pz      :     1.075751  p :     3.213299
      px      :     1.057284
      py      :     1.080263
      dz2     :     0.027171  d :     0.094430
      dxz     :     0.018316
      dyz     :     0.006075
      dx2y2   :     0.024817
      dxy     :     0.018050
  8 C s       :     2.909535  s :     2.909535
      pz      :     1.081119  p :     3.215034
      px      :     1.052180
      py      :     1.081736
      dz2     :     0.024890  d :     0.095016
      dxz     :     0.010624
      dyz     :     0.015741
      dx2y2   :     0.021453
      dxy     :     0.022308
  9 C s       :     2.957831  s :     2.957831
      pz      :     1.106444  p :     3.281709
      px      :     1.081207
      py      :     1.094058
      dz2     :     0.018660  d :     0.074867
      dxz     :     0.005369
      dyz     :     0.017448
      dx2y2   :     0.014562
      dxy     :     0.018827
 10 H s       :     0.890693  s :     0.890693
 11 H s       :     0.890391  s :     0.890391
 12 H s       :     0.889638  s :     0.889638
 13 H s       :     0.891605  s :     0.891605
 14 H s       :     0.892316  s :     0.892316
 15 H s       :     0.897547  s :     0.897547
 16 H s       :     0.900662  s :     0.900662
 17 H s       :     0.898428  s :     0.898428
 18 H s       :     0.894215  s :     0.894215
 19 H s       :     0.895932  s :     0.895932
 20 H s       :     0.888486  s :     0.888486
 21 H s       :     0.893032  s :     0.893032
 22 H s       :     0.892206  s :     0.892206
 23 H s       :     0.894653  s :     0.894653
 24 H s       :     0.894380  s :     0.894380
 25 H s       :     0.893948  s :     0.893948
 26 H s       :     0.899102  s :     0.899102
 27 H s       :     0.896981  s :     0.896981
 28 H s       :     0.894423  s :     0.894423
 29 H s       :     0.892551  s :     0.892551
 30 H s       :     0.892725  s :     0.892725
 31 H s       :     0.892453  s :     0.892453

SPIN
  0 C s       :     0.000000  s :     0.000000
      pz      :     0.000000  p :     0.000000
      px      :     0.000000
      py      :     0.000000
      dz2     :     0.000000  d :     0.000000
      dxz     :     0.000000
      dyz     :     0.000000
      dx2y2   :     0.000000
      dxy     :     0.000000
  1 C s       :     0.000000  s :     0.000000
      pz      :     0.000000  p :     0.000000
      px      :     0.000000
      py      :     0.000000
      dz2     :     0.000000  d :     0.000000
      dxz     :     0.000000
      dyz     :     0.000000
      dx2y2   :     0.000000
      dxy     :     0.000000
  2 C s       :     0.000000  s :     0.000000
      pz      :     0.000000  p :     0.000000
      px      :     0.000000
      py      :     0.000000
      dz2     :     0.000000  d :     0.000000
      dxz     :     0.000000
      dyz     :     0.000000
      dx2y2   :     0.000000
      dxy     :     0.000000
  3 C s       :     0.000000  s :     0.000000
      pz      :     0.000000  p :     0.000000
      px      :     0.000000
      py      :     0.000000
      dz2     :     0.000000  d :     0.000000
      dxz     :     0.000000
      dyz     :     0.000000
      dx2y2   :     0.000000
      dxy     :     0.000000
  4 C s       :     0.000000  s :     0.000000
      pz      :     0.000000  p :     0.000000
      px      :     0.000000
      py      :     0.000000
      dz2     :     0.000000  d :     0.000000
      dxz     :     0.000000
      dyz     :     0.000000
      dx2y2   :     0.000000
      dxy     :     0.000000
  5 C s       :     0.000000  s :     0.000000
      pz      :     0.000000  p :     0.000000
      px      :     0.000000
      py      :     0.000000
      dz2     :     0.000000  d :     0.000000
      dxz     :     0.000000
      dyz     :     0.000000
      dx2y2   :     0.000000
      dxy     :     0.000000
  6 C s       :     0.000000  s :     0.000000
      pz      :     0.000000  p :     0.000000
      px      :     0.000000
      py      :     0.000000
      dz2     :     0.000000  d :     0.000000
      dxz     :     0.000000
      dyz     :     0.000000
      dx2y2   :     0.000000
      dxy     :     0.000000
  7 C s       :     0.000000  s :     0.000000
      pz      :     0.000000  p :     0.000000
      px      :     0.000000
      py      :     0.000000
      dz2     :     0.000000  d :     0.000000
      dxz     :     0.000000
      dyz     :     0.000000
      dx2y2   :     0.000000
      dxy     :     0.000000
  8 C s       :     0.000000  s :     0.000000
      pz      :     0.000000  p :     0.000000
      px      :     0.000000
      py      :     0.000000
      dz2     :     0.000000  d :     0.000000
      dxz     :     0.000000
      dyz     :     0.000000
      dx2y2   :     0.000000
      dxy     :     0.000000
  9 C s       :     0.000000  s :     0.000000
      pz      :     0.000000  p :     0.000000
      px      :     0.000000
      py      :     0.000000
      dz2     :     0.000000  d :     0.000000
      dxz     :     0.000000
      dyz     :     0.000000
      dx2y2   :     0.000000
      dxy     :     0.000000
 10 H s       :     0.000000  s :     0.000000
 11 H s       :     0.000000  s :     0.000000
 12 H s       :     0.000000  s :     0.000000
 13 H s       :     0.000000  s :     0.000000
 14 H s       :     0.000000  s :     0.000000
 15 H s       :     0.000000  s :     0.000000
 16 H s       :     0.000000  s :     0.000000
 17 H s       :     0.000000  s :     0.000000
 18 H s       :     0.000000  s :     0.000000
 19 H s       :     0.000000  s :     0.000000
 20 H s       :     0.000000  s :     0.000000
 21 H s       :     0.000000  s :     0.000000
 22 H s       :     0.000000  s :     0.000000
 23 H s       :     0.000000  s :     0.000000
 24 H s       :     0.000000  s :     0.000000
 25 H s       :     0.000000  s :     0.000000
 26 H s       :     0.000000  s :     0.000000
 27 H s       :     0.000000  s :     0.000000
 28 H s       :     0.000000  s :     0.000000
 29 H s       :     0.000000  s :     0.000000
 30 H s       :     0.000000  s :     0.000000
 31 H s       :     0.000000  s :     0.000000


                      *****************************
                      * MAYER POPULATION ANALYSIS *
                      *****************************

  NA   - Mulliken gross atomic population
  ZA   - Total nuclear charge
  QA   - Mulliken gross atomic charge
  VA   - Mayer's total valence
  BVA  - Mayer's bonded valence
  FA   - Mayer's free valence

  ATOM       NA         ZA         QA         VA         BVA        FA
  0 C      6.2753     6.0000    -0.2753     4.0258     4.0258    -0.0000
  1 C      6.1358     6.0000    -0.1358     4.1323     4.1323    -0.0000
  2 C      6.1606     6.0000    -0.1606     4.1016     4.1016     0.0000
  3 C      6.1018     6.0000    -0.1018     4.0675     4.0675     0.0000
  4 C      6.2241     6.0000    -0.2241     4.1588     4.1588     0.0000
  5 C      6.1036     6.0000    -0.1036     4.0943     4.0943     0.0000
  6 C      6.1104     6.0000    -0.1104     4.0421     4.0421     0.0000
  7 C      6.1635     6.0000    -0.1635     4.0879     4.0879     0.0000
  8 C      6.1700     6.0000    -0.1700     4.1253     4.1253     0.0000
  9 C      6.2482     6.0000    -0.2482     4.0235     4.0235    -0.0000
 10 H      0.9106     1.0000     0.0894     0.9491     0.9491     0.0000
 11 H      0.9140     1.0000     0.0860     0.9539     0.9539     0.0000
 12 H      0.9002     1.0000     0.0998     0.9672     0.9672     0.0000
 13 H      0.9299     1.0000     0.0701     0.9435     0.9435     0.0000
 14 H      0.9199     1.0000     0.0801     0.9547     0.9547     0.0000
 15 H      0.9281     1.0000     0.0719     0.9566     0.9566     0.0000
 16 H      0.9382     1.0000     0.0618     0.9467     0.9467     0.0000
 17 H      0.9390     1.0000     0.0610     0.9595     0.9595     0.0000
 18 H      0.9284     1.0000     0.0716     0.9545     0.9545     0.0000
 19 H      0.9180     1.0000     0.0820     0.9516     0.9516     0.0000
 20 H      0.9164     1.0000     0.0836     0.9494     0.9494     0.0000
 21 H      0.9348     1.0000     0.0652     0.9559     0.9559     0.0000
 22 H      0.9241     1.0000     0.0759     0.9594     0.9594     0.0000
 23 H      0.9289     1.0000     0.0711     0.9568     0.9568     0.0000
 24 H      0.9282     1.0000     0.0718     0.9566     0.9566     0.0000
 25 H      0.9246     1.0000     0.0754     0.9535     0.9535     0.0000
 26 H      0.9350     1.0000     0.0650     0.9599     0.9599     0.0000
 27 H      0.9258     1.0000     0.0742     0.9533     0.9533     0.0000
 28 H      0.9265     1.0000     0.0735     0.9468     0.9468     0.0000
 29 H      0.9135     1.0000     0.0865     0.9538     0.9538     0.0000
 30 H      0.9121     1.0000     0.0879     0.9571     0.9571     0.0000
 31 H      0.9106     1.0000     0.0894     0.9524     0.9524     0.0000

  Mayer bond orders larger than 0.100000
B(  0-C ,  1-C ) :   1.1295 B(  0-C , 10-H ) :   0.9617 B(  0-C , 11-H ) :   0.9612 
[...]
      px      :     0.000000
      py      :     0.000000
      dz2     :     0.000000  d :     0.000000
      dxz     :     0.000000
      dyz     :     0.000000
      dx2y2   :     0.000000
      dxy     :     0.000000
  9 C s       :    -0.000000  s :    -0.000000
      pz      :     0.000000  p :     0.000000
      px      :     0.000000
      py      :     0.000000
      dz2     :     0.000000  d :     0.000000
      dxz     :     0.000000
      dyz     :     0.000000
      dx2y2   :     0.000000
      dxy     :     0.000000
 10 H s       :     0.000000  s :     0.000000
 11 H s       :     0.000000  s :     0.000000
 12 H s       :     0.000000  s :     0.000000
 13 H s       :     0.000000  s :     0.000000
 14 H s       :     0.000000  s :     0.000000
 15 H s       :     0.000000  s :     0.000000
 16 H s       :     0.000000  s :     0.000000
 17 H s       :     0.000000  s :     0.000000
 18 H s       :     0.000000  s :     0.000000
 19 H s       :     0.000000  s :     0.000000
 20 H s       :     0.000000  s :     0.000000
 21 H s       :     0.000000  s :     0.000000
 22 H s       :     0.000000  s :     0.000000
 23 H s       :     0.000000  s :     0.000000
 24 H s       :     0.000000  s :     0.000000
 25 H s       :     0.000000  s :     0.000000
 26 H s       :     0.000000  s :     0.000000
 27 H s       :     0.000000  s :     0.000000
 28 H s       :     0.000000  s :     0.000000
 29 H s       :     0.000000  s :     0.000000
 30 H s       :     0.000000  s :     0.000000
 31 H s       :     0.000000  s :     0.000000


                     *******************************
                     * LOEWDIN POPULATION ANALYSIS *
                     *******************************

-------------------------------------------
LOEWDIN ATOMIC CHARGES AND SPIN POPULATIONS
-------------------------------------------
   0 C :   -0.322186    0.000000
   1 C :   -0.218196    0.000000
   2 C :   -0.210978    0.000000
   3 C :   -0.208879    0.000000
   4 C :   -0.214026    0.000000
   5 C :   -0.211498    0.000000
   6 C :   -0.209218    0.000000
   7 C :   -0.210491    0.000000
   8 C :   -0.221031    0.000000
   9 C :   -0.318752    0.000000
  10 H :    0.110174    0.000000
  11 H :    0.109202    0.000000
  12 H :    0.107614    0.000000
  13 H :    0.108070    0.000000
  14 H :    0.104619    0.000000
  15 H :    0.104684    0.000000
  16 H :    0.108132    0.000000
  17 H :    0.105153    0.000000
  18 H :    0.104906    0.000000
  19 H :    0.105342    0.000000
  20 H :    0.106120    0.000000
  21 H :    0.104534    0.000000
  22 H :    0.105524    0.000000
  23 H :    0.105268    0.000000
  24 H :    0.105447    0.000000
  25 H :    0.104901    0.000000
  26 H :    0.105295    0.000000
  27 H :    0.106284    0.000000
  28 H :    0.105898    0.000000
  29 H :    0.109339    0.000000
  30 H :    0.108077    0.000000
  31 H :    0.110675    0.000000

----------------------------------------------------
LOEWDIN REDUCED ORBITAL CHARGES AND SPIN POPULATIONS
----------------------------------------------------
CHARGE
  0 C s       :     2.952717  s :     2.952717
      pz      :     1.092829  p :     3.295908
      px      :     1.115402
      py      :     1.087676
      dz2     :     0.019717  d :     0.073561
      dxz     :     0.007108
      dyz     :     0.016861
      dx2y2   :     0.008595
      dxy     :     0.021281
  1 C s       :     2.912745  s :     2.912745
      pz      :     1.078120  p :     3.216163
      px      :     1.077490
      py      :     1.060553
      dz2     :     0.021926  d :     0.089289
      dxz     :     0.006608
      dyz     :     0.022626
      dx2y2   :     0.018491
      dxy     :     0.019638
  2 C s       :     2.914021  s :     2.914021
      pz      :     1.087077  p :     3.208050
      px      :     1.053969
      py      :     1.067004
      dz2     :     0.025095  d :     0.088907
      dxz     :     0.010615
      dyz     :     0.011334
      dx2y2   :     0.019747
      dxy     :     0.022117
  3 C s       :     2.913227  s :     2.913227
      pz      :     1.085125  p :     3.205022
      px      :     1.047529
      py      :     1.072368
      dz2     :     0.029284  d :     0.090629
      dxz     :     0.010971
      dyz     :     0.007137
      dx2y2   :     0.018912
      dxy     :     0.024325
  4 C s       :     2.913352  s :     2.913352
      pz      :     1.086822  p :     3.210371
      px      :     1.046791
      py      :     1.076758
      dz2     :     0.028377  d :     0.090303
      dxz     :     0.010973
      dyz     :     0.008267
      dx2y2   :     0.021505
      dxy     :     0.021182
  5 C s       :     2.912690  s :     2.912690
      pz      :     1.086830  p :     3.208783
      px      :     1.044965
      py      :     1.076988
      dz2     :     0.028204  d :     0.090024
      dxz     :     0.010752
      dyz     :     0.008302
      dx2y2   :     0.021331
      dxy     :     0.021436
  6 C s       :     2.911894  s :     2.911894
      pz      :     1.086881  p :     3.207204
      px      :     1.047564
      py      :     1.072759
      dz2     :     0.028678  d :     0.090119
      dxz     :     0.010882
      dyz     :     0.007774
      dx2y2   :     0.019871
      dxy     :     0.022915
  7 C s       :     2.913611  s :     2.913611
      pz      :     1.087226  p :     3.206807
      px      :     1.047299
      py      :     1.072282
      dz2     :     0.028008  d :     0.090073
      dxz     :     0.010789
      dyz     :     0.008486
      dx2y2   :     0.019961
      dxy     :     0.022829
  8 C s       :     2.911833  s :     2.911833
      pz      :     1.088312  p :     3.218734
      px      :     1.050975
      py      :     1.079447
      dz2     :     0.027403  d :     0.090464
      dxz     :     0.010912
      dyz     :     0.009170
      dx2y2   :     0.021292
      dxy     :     0.021687
  9 C s       :     2.952581  s :     2.952581
      pz      :     1.111012  p :     3.292745
      px      :     1.071420
      py      :     1.110314
      dz2     :     0.022940  d :     0.073426
      dxz     :     0.009756
      dyz     :     0.006777
      dx2y2   :     0.013129
      dxy     :     0.020824
 10 H s       :     0.889826  s :     0.889826
 11 H s       :     0.890798  s :     0.890798
 12 H s       :     0.892386  s :     0.892386
 13 H s       :     0.891930  s :     0.891930
 14 H s       :     0.895381  s :     0.895381
 15 H s       :     0.895316  s :     0.895316
 16 H s       :     0.891868  s :     0.891868
 17 H s       :     0.894847  s :     0.894847
 18 H s       :     0.895094  s :     0.895094
 19 H s       :     0.894658  s :     0.894658
 20 H s       :     0.893880  s :     0.893880
 21 H s       :     0.895466  s :     0.895466
 22 H s       :     0.894476  s :     0.894476
 23 H s       :     0.894732  s :     0.894732
 24 H s       :     0.894553  s :     0.894553
 25 H s       :     0.895099  s :     0.895099
 26 H s       :     0.894705  s :     0.894705
 27 H s       :     0.893716  s :     0.893716
 28 H s       :     0.894102  s :     0.894102
 29 H s       :     0.890661  s :     0.890661
 30 H s       :     0.891923  s :     0.891923
 31 H s       :     0.889325  s :     0.889325

SPIN
  0 C s       :     0.000000  s :     0.000000
      pz      :     0.000000  p :     0.000000
      px      :     0.000000
      py      :     0.000000
      dz2     :     0.000000  d :     0.000000
      dxz     :     0.000000
      dyz     :     0.000000
      dx2y2   :     0.000000
      dxy     :     0.000000
  1 C s       :     0.000000  s :     0.000000
      pz      :     0.000000  p :     0.000000
      px      :     0.000000
      py      :     0.000000
      dz2     :     0.000000  d :     0.000000
      dxz     :     0.000000
      dyz     :     0.000000
      dx2y2   :     0.000000
      dxy     :     0.000000
  2 C s       :     0.000000  s :     0.000000
      pz      :     0.000000  p :     0.000000
      px      :     0.000000
      py      :     0.000000
      dz2     :     0.000000  d :     0.000000
      dxz     :     0.000000
      dyz     :     0.000000
      dx2y2   :     0.000000
      dxy     :     0.000000
  3 C s       :     0.000000  s :     0.000000
      pz      :     0.000000  p :     0.000000
      px      :     0.000000
      py      :     0.000000
      dz2     :     0.000000  d :     0.000000
      dxz     :     0.000000
      dyz     :     0.000000
      dx2y2   :     0.000000
      dxy     :     0.000000
  4 C s       :     0.000000  s :     0.000000
      pz      :     0.000000  p :     0.000000
      px      :     0.000000
      py      :     0.000000
      dz2     :     0.000000  d :     0.000000
      dxz     :     0.000000
      dyz     :     0.000000
      dx2y2   :     0.000000
      dxy     :     0.000000
  5 C s       :     0.000000  s :     0.000000
      pz      :     0.000000  p :     0.000000
      px      :     0.000000
      py      :     0.000000
      dz2     :     0.000000  d :     0.000000
      dxz     :     0.000000
      dyz     :     0.000000
      dx2y2   :     0.000000
      dxy     :     0.000000
  6 C s       :     0.000000  s :     0.000000
      pz      :     0.000000  p :     0.000000
      px      :     0.000000
      py      :     0.000000
      dz2     :     0.000000  d :     0.000000
      dxz     :     0.000000
      dyz     :     0.000000
      dx2y2   :     0.000000
      dxy     :     0.000000
  7 C s       :     0.000000  s :     0.000000
      pz      :     0.000000  p :     0.000000
      px      :     0.000000
      py      :     0.000000
      dz2     :     0.000000  d :     0.000000
      dxz     :     0.000000
      dyz     :     0.000000
      dx2y2   :     0.000000
      dxy     :     0.000000
  8 C s       :     0.000000  s :     0.000000
      pz      :     0.000000  p :     0.000000
      px      :     0.000000
      py      :     0.000000
      dz2     :     0.000000  d :     0.000000
      dxz     :     0.000000
      dyz     :     0.000000
      dx2y2   :     0.000000
      dxy     :     0.000000
  9 C s       :     0.000000  s :     0.000000
      pz      :     0.000000  p :     0.000000
      px      :     0.000000
      py      :     0.000000
      dz2     :     0.000000  d :     0.000000
      dxz     :     0.000000
      dyz     :     0.000000
      dx2y2   :     0.000000
      dxy     :     0.000000
 10 H s       :     0.000000  s :     0.000000
 11 H s       :     0.000000  s :     0.000000
 12 H s       :     0.000000  s :     0.000000
 13 H s       :     0.000000  s :     0.000000
 14 H s       :     0.000000  s :     0.000000
 15 H s       :     0.000000  s :     0.000000
 16 H s       :     0.000000  s :     0.000000
 17 H s       :     0.000000  s :     0.000000
 18 H s       :     0.000000  s :     0.000000
 19 H s       :     0.000000  s :     0.000000
 20 H s       :     0.000000  s :     0.000000
 21 H s       :     0.000000  s :     0.000000
 22 H s       :     0.000000  s :     0.000000
 23 H s       :     0.000000  s :     0.000000
 24 H s       :     0.000000  s :     0.000000
 25 H s       :     0.000000  s :     0.000000
 26 H s       :     0.000000  s :     0.000000
 27 H s       :     0.000000  s :     0.000000
 28 H s       :     0.000000  s :     0.000000
 29 H s       :     0.000000  s :     0.000000
 30 H s       :     0.000000  s :     0.000000
 31 H s       :     0.000000  s :     0.000000


                      *****************************
                      * MAYER POPULATION ANALYSIS *
                      *****************************

  NA   - Mulliken gross atomic population
  ZA   - Total nuclear charge
  QA   - Mulliken gross atomic charge
  VA   - Mayer's total valence
  BVA  - Mayer's bonded valence
  FA   - Mayer's free valence

  ATOM       NA         ZA         QA         VA         BVA        FA
  0 C      6.2645     6.0000    -0.2645     4.0155     4.0155     0.0000
  1 C      6.1476     6.0000    -0.1476     4.1144     4.1144     0.0000
  2 C      6.1088     6.0000    -0.1088     4.0746     4.0746     0.0000
  3 C      6.1411     6.0000    -0.1411     4.1273     4.1273     0.0000
  4 C      6.1642     6.0000    -0.1642     4.0873     4.0873     0.0000
  5 C      6.1661     6.0000    -0.1661     4.0894     4.0894     0.0000
  6 C      6.1087     6.0000    -0.1087     4.0816     4.0816     0.0000
  7 C      6.1258     6.0000    -0.1258     4.0830     4.0830     0.0000
  8 C      6.1800     6.0000    -0.1800     4.1237     4.1237     0.0000
  9 C      6.2403     6.0000    -0.2403     4.0054     4.0054     0.0000
 10 H      0.9108     1.0000     0.0892     0.9517     0.9517     0.0000
 11 H      0.9017     1.0000     0.0983     0.9678     0.9678     0.0000
 12 H      0.9159     1.0000     0.0841     0.9561     0.9561     0.0000
 13 H      0.9301     1.0000     0.0699     0.9451     0.9451     0.0000
 14 H      0.9299     1.0000     0.0701     0.9537     0.9537     0.0000
 15 H      0.9339     1.0000     0.0661     0.9591     0.9591     0.0000
 16 H      0.9373     1.0000     0.0627     0.9477     0.9477     0.0000
 17 H      0.9350     1.0000     0.0650     0.9530     0.9530     0.0000
 18 H      0.9312     1.0000     0.0688     0.9524     0.9524     0.0000
 19 H      0.9298     1.0000     0.0702     0.9556     0.9556     0.0000
 20 H      0.9169     1.0000     0.0831     0.9510     0.9510     0.0000
 21 H      0.9263     1.0000     0.0737     0.9578     0.9578     0.0000
 22 H      0.9328     1.0000     0.0672     0.9560     0.9560     0.0000
 23 H      0.9332     1.0000     0.0668     0.9563     0.9563     0.0000
 24 H      0.9370     1.0000     0.0630     0.9535     0.9535     0.0000
 25 H      0.9323     1.0000     0.0677     0.9555     0.9555     0.0000
 26 H      0.9366     1.0000     0.0634     0.9518     0.9518     0.0000
 27 H      0.9261     1.0000     0.0739     0.9494     0.9494     0.0000
 28 H      0.9202     1.0000     0.0798     0.9493     0.9493     0.0000
 29 H      0.9119     1.0000     0.0881     0.9577     0.9577     0.0000
 30 H      0.9148     1.0000     0.0852     0.9575     0.9575     0.0000
 31 H      0.9093     1.0000     0.0907     0.9517     0.9517     0.0000

  Mayer bond orders larger than 0.100000
B(  0-C ,  1-C ) :   1.1376 B(  0-C , 10-H ) :   0.9582 B(  0-C , 11-H ) :   0.9533 
B(  0-C , 12-H ) :   0.9584 B(  1-C ,  2-C ) :   1.0829 B(  1-C , 13-H ) :   0.9382 
B(  1-C , 14-H ) :   0.9387 B(  2-C ,  3-C ) :   1.1270 B(  2-C , 15-H ) :   0.9314 
B(  2-C , 16-H ) :   0.9304 B(  3-C ,  4-C ) :   1.1222 B(  3-C , 17-H ) :   0.9279 
B(  3-C , 18-H ) :   0.9250 B(  4-C ,  5-C ) :   1.1165 B(  4-C , 19-H ) :   0.9277 
B(  4-C , 20-H ) :   0.9161 B(  5-C ,  6-C ) :   1.1169 B(  5-C , 21-H ) :   0.9229 
B(  5-C , 22-H ) :   0.9283 B(  6-C ,  7-C ) :   1.1117 B(  6-C , 23-H ) :   0.9256 
B(  6-C , 24-H ) :   0.9278 B(  7-C ,  8-C ) :   1.1126 B(  7-C , 25-H ) :   0.9288 
B(  7-C , 26-H ) :   0.9312 B(  8-C ,  9-C ) :   1.1326 B(  8-C , 27-H ) :   0.9366 
B(  8-C , 28-H ) :   0.9305 B(  9-C , 29-H ) :   0.9601 B(  9-C , 30-H ) :   0.9598 
B(  9-C , 31-H ) :   0.9598 

-------
TIMINGS
-------

Total SCF time: 0 days 0 hours 0 min 54 sec 

Total time                  ....      54.838 sec
Sum of individual times     ....      51.436 sec  ( 93.8%)

Fock matrix formation       ....      47.656 sec  ( 86.9%)
  XC integration            ....      10.837 sec  ( 22.7% of F)
    Basis function eval.    ....       1.694 sec  ( 15.6% of XC)
    Density eval.           ....       1.547 sec  ( 14.3% of XC)
    XC-Functional eval.     ....       0.317 sec  (  2.9% of XC)
    XC-Potential eval.      ....       1.929 sec  ( 17.8% of XC)
Diagonalization             ....       0.120 sec  (  0.2%)
Density matrix formation    ....       0.348 sec  (  0.6%)
Population analysis         ....       0.330 sec  (  0.6%)
Initial guess               ....       0.015 sec  (  0.0%)
Orbital Transformation      ....       0.000 sec  (  0.0%)
Orbital Orthonormalization  ....       0.009 sec  (  0.0%)
DIIS solution               ....       0.366 sec  (  0.7%)
Grid generation             ....       2.601 sec  (  4.7%)


-------------------------------------------------------------------------------
                          DFT DISPERSION CORRECTION                            
                                                                               
                              DFTD3 V3.1  Rev 1                                
                          USING Becke-Johnson damping                          
-------------------------------------------------------------------------------
The B3LYP functional is recognized
Active option DFTDOPT                   ...         4   

molecular C6(AA) [au] = 6609.887672 


            DFT-D V3
 parameters
 s6 scaling factor         :     1.0000 
 a1 scaling factor         :     0.3981 
 s8 scaling factor         :     1.9889 
 a2 scaling factor         :     4.4211 
 ad hoc parameters k1-k3   :    16.0000     1.3333    -4.0000 

 Edisp/kcal,au: -28.217903070695  -0.044968086104 
 E6   /kcal   : -14.181014470 
 E8   /kcal   : -14.036888601 
 % E8         :  49.744619809 

-------------------------   ----------------
Dispersion correction           -0.044968086
-------------------------   ----------------


-------------------------   --------------------
FINAL SINGLE POINT ENERGY      -393.745883458341
-------------------------   --------------------

                                *** OPTIMIZATION RUN DONE ***

                            ***************************************
                            *     ORCA property calculations      *
                            ***************************************

                                    ---------------------
                                    Active property flags
                                    ---------------------
   (+) Dipole Moment


------------------------------------------------------------------------------
                       ORCA ELECTRIC PROPERTIES CALCULATION
------------------------------------------------------------------------------

Dipole Moment Calculation                       ... on
Quadrupole Moment Calculation                   ... off
Polarizability Calculation                      ... off
GBWName                                         ... orca6.gbw
Electron density file                           ... orca6.scfp
The origin for moment calculation is the CENTER OF MASS  = (-0.049155, -0.040061 -0.028082)

-------------
DIPOLE MOMENT
-------------
                                X             Y             Z
Electronic contribution:     -0.86618      -0.71524      -0.45395
Nuclear contribution   :      0.85245       0.69474       0.44213
                        -----------------------------------------
Total Dipole Moment    :     -0.01373      -0.02049      -0.01182
                        -----------------------------------------
Magnitude (a.u.)       :      0.02735
Magnitude (Debye)      :      0.06952



--------------------
Rotational spectrum 
--------------------
 
Rotational constants in cm-1:     0.119758     0.011332     0.010725 
Rotational constants in MHz :  3590.246260   339.734532   321.523146 

 Dipole components along the rotational axes: 
x,y,z [a.u.] :    -0.014887    -0.022073     0.006268 
x,y,z [Debye]:    -0.037841    -0.056105     0.015932 

 

Timings for individual modules:

Sum of individual times         ...     9930.494 sec (= 165.508 min)
GTO integral calculation        ...      191.053 sec (=   3.184 min)   1.9 %
SCF iterations                  ...     8518.826 sec (= 141.980 min)  85.8 %
SCF Gradient evaluation         ...     1121.526 sec (=  18.692 min)  11.3 %
Geometry relaxation             ...       99.089 sec (=   1.651 min)   1.0 %
                             ****ORCA TERMINATED NORMALLY****
TOTAL RUN TIME: 0 days 2 hours 49 minutes 28 seconds 567 msec
