
                                 *****************
                                 * O   R   C   A *
                                 *****************

           --- An Ab Initio, DFT and Semiempirical electronic structure package ---

                  #######################################################
                  #                        -***-                        #
                  #          Department of theory and spectroscopy      #
                  #               Directorship: Frank Neese             #
                  #        Max Planck Institute fuer Kohlenforschung    #
                  #                Kaiser Wilhelm Platz 1               #
                  #                 D-45470 Muelheim/Ruhr               #
                  #                      Germany                        #
                  #                                                     #
                  #                  All rights reserved                #
                  #                        -***-                        #
                  #######################################################


                         Program Version 4.2.1 -  RELEASE  -


 With contributions from (in alphabetic order):
   Daniel Aravena         : Magnetic Suceptibility
   Michael Atanasov       : Ab Initio Ligand Field Theory (pilot matlab implementation)
   Alexander A. Auer      : GIAO ZORA, VPT2
   Ute Becker             : Parallelization
   Giovanni Bistoni       : ED, misc. LED, open-shell LED, HFLD
   Martin Brehm           : Molecular dynamics
   Dmytro Bykov           : SCF Hessian
   Vijay G. Chilkuri      : MRCI spin determinant printing, contributions to CSF-ICE
   Dipayan Datta          : RHF DLPNO-CCSD density
   Achintya Kumar Dutta   : EOM-CC, STEOM-CC
   Dmitry Ganyushin       : Spin-Orbit,Spin-Spin,Magnetic field MRCI
   Miquel Garcia          : C-PCM Hessian, Gaussian charge scheme
   Yang Guo               : DLPNO-NEVPT2, CIM, IAO-localization
   Andreas Hansen         : Spin unrestricted coupled pair/coupled cluster methods
   Benjamin Helmich-Paris : CASSCF linear response (MC-RPA)
   Lee Huntington         : MR-EOM, pCC
   Robert Izsak           : Overlap fitted RIJCOSX, COSX-SCS-MP3, EOM
   Christian Kollmar      : KDIIS, OOCD, Brueckner-CCSD(T), CCSD density
   Simone Kossmann        : Meta GGA functionals, TD-DFT gradient, OOMP2, MP2 Hessian
   Martin Krupicka        : AUTO-CI
   Lucas Lang             : DCDCAS
   Dagmar Lenk            : GEPOL surface, SMD
   Dimitrios Liakos       : Extrapolation schemes; Compound Job, initial MDCI parallelization
   Dimitrios Manganas     : Further ROCIS development; embedding schemes
   Dimitrios Pantazis     : SARC Basis sets
   Taras Petrenko         : DFT Hessian,TD-DFT gradient, ASA, ECA, R-Raman, ABS, FL, XAS/XES, NRVS
   Peter Pinski           : DLPNO-MP2, DLPNO-MP2 Gradient
   Christoph Reimann      : Effective Core Potentials
   Marius Retegan         : Local ZFS, SOC
   Christoph Riplinger    : Optimizer, TS searches, QM/MM, DLPNO-CCSD(T), (RO)-DLPNO pert. Triples
   Tobias Risthaus        : Range-separated hybrids, TD-DFT gradient, RPA, STAB
   Michael Roemelt        : Original ROCIS implementation
   Masaaki Saitow         : Open-shell DLPNO-CCSD energy and density
   Barbara Sandhoefer     : DKH picture change effects
   Avijit Sen             : IP-ROCIS
   Kantharuban Sivalingam : CASSCF convergence, NEVPT2, FIC-MRCI
   Bernardo de Souza      : ESD, SOC TD-DFT
   Georgi Stoychev        : AutoAux, RI-MP2 NMR
   Willem Van den Heuvel  : Paramagnetic NMR
   Boris Wezisla          : Elementary symmetry handling
   Frank Wennmohs         : Technical directorship


 We gratefully acknowledge several colleagues who have allowed us to
 interface, adapt or use parts of their codes:
   Stefan Grimme, W. Hujo, H. Kruse,             : VdW corrections, initial TS optimization,
                  C. Bannwarth                     DFT functionals, gCP, sTDA/sTD-DF
   Ed Valeev, F. Pavosevic, A. Kumar             : LibInt (2-el integral package), F12 methods
   Garnet Chan, S. Sharma, J. Yang, R. Olivares  : DMRG
   Ulf Ekstrom                                   : XCFun DFT Library
   Mihaly Kallay                                 : mrcc  (arbitrary order and MRCC methods)
   Andreas Klamt, Michael Diedenhofen            : otool_cosmo (COSMO solvation model)
   Jiri Pittner, Ondrej Demel                    : Mk-CCSD
   Frank Weinhold                                : gennbo (NPA and NBO analysis)
   Christopher J. Cramer and Donald G. Truhlar   : smd solvation model
   Lars Goerigk                                  : TD-DFT with DH, B97 family of functionals
   V. Asgeirsson, H. Jonsson                     : NEB implementation
   FAccTs GmbH                                   : IRC, NEB, NEB-TS, Multilevel, MM, QM/MM, CI optimization
   S Lehtola, MJT Oliveira, MAL Marques          : LibXC Library


 Your calculation uses the libint2 library for the computation of 2-el integrals
 For citations please refer to: http://libint.valeyev.net

 Your ORCA version has been built with support for libXC version: 4.2.3
 For citations please refer to: https://tddft.org/programs/libxc/

 This ORCA versions uses:
   CBLAS   interface :  Fast vector & matrix operations
   LAPACKE interface :  Fast linear algebra routines
   SCALAPACK package :  Parallel linear algebra routines


Your calculation utilizes the atom-pairwise dispersion correction
with the Becke-Johnson damping scheme (D3BJ)
Cite in your paper:
S.Grimme, S.Ehrlich, L.Goerigk, J Comput Chem, (2011), 32, 1456–1465 
S.Grimme, J.Antony, S.Ehrlich and H.Krieg, J.Chem.Phys., 132, (2010), 154104 
   

----- Orbital basis set information -----
Your calculation utilizes the basis: def2-SV(P)
   F. Weigend and R. Ahlrichs, Phys. Chem. Chem. Phys. 7, 3297 (2005).

----- AuxJ basis set information -----
Your calculation utilizes the auxiliary basis: def2/J
   F. Weigend, Phys. Chem. Chem. Phys. 8, 1057 (2006).

================================================================================
                                        WARNINGS
                       Please study these warnings very carefully!
================================================================================


WARNING: Geometry Optimization
  ===> : Switching off AutoStart
         For restart on a previous wavefunction, please use MOREAD

INFO   : the flag for use of LIBINT has been found!

================================================================================
                                       INPUT FILE
================================================================================
NAME = orca7.inp
|  1> ! UKS B3LYP def2-SV(P) def2/J D3BJ Opt
|  2> %scf Convergence VeryTight
|  3> SmearTemp 2000
|  4> maxiter 500
|  5> end
|  6> *xyz 0 1
|  7> C 5.196957 -0.352447 -0.101795
|  8> C 3.696577 -0.472585 -0.237504
|  9> C 3.01926 0.506666 0.674237
| 10> C 1.69824 0.988401 0.142858
| 11> C 0.65039 -0.08362 0.070458
| 12> C -0.463515 0.426771 -0.835951
| 13> C -1.7646 0.589185 -0.079805
| 14> C -2.835956 -0.365034 -0.579747
| 15> C -4.186897 0.099771 -0.108689
| 16> C -5.007453 -1.0451 0.418985
| 17> H 5.736517 -1.125668 -0.66599
| 18> H 5.530195 -0.365246 0.955545
| 19> H 5.542936 0.626658 -0.51148
| 20> H 3.393449 -1.487493 0.078757
| 21> H 3.427707 -0.232365 -1.281771
| 22> H 2.968797 0.097914 1.696813
| 23> H 3.680652 1.406168 0.736958
| 24> H 1.31823 1.79325 0.788509
| 25> H 1.880095 1.378298 -0.878992
| 26> H 1.005378 -1.034349 -0.354512
| 27> H 0.206127 -0.198555 1.084543
| 28> H -0.171942 1.383411 -1.339735
| 29> H -0.672855 -0.286677 -1.664472
| 30> H -2.165142 1.613654 -0.251595
| 31> H -1.642524 0.475499 1.01477
| 32> H -2.828474 -0.360459 -1.6942
| 33> H -2.647489 -1.405408 -0.235984
| 34> H -4.751023 0.57647 -0.949275
| 35> H -4.045318 0.915766 0.641768
| 36> H -5.554615 -0.766556 1.354397
| 37> H -5.801262 -1.323199 -0.313974
| 38> H -4.412441 -1.97312 0.575392
| 39> *
| 40> 
| 41>                          ****END OF INPUT****
================================================================================

                       *****************************
                       * Geometry Optimization Run *
                       *****************************

Geometry optimization settings:
Update method            Update   .... BFGS
Choice of coordinates    CoordSys .... Z-matrix Internals
Initial Hessian          InHess   .... Almoef's Model

Convergence Tolerances:
Energy Change            TolE     ....  5.0000e-06 Eh
Max. Gradient            TolMAXG  ....  3.0000e-04 Eh/bohr
RMS Gradient             TolRMSG  ....  1.0000e-04 Eh/bohr
Max. Displacement        TolMAXD  ....  4.0000e-03 bohr
RMS Displacement         TolRMSD  ....  2.0000e-03 bohr
Strict Convergence                ....  False
------------------------------------------------------------------------------
                        ORCA OPTIMIZATION COORDINATE SETUP
------------------------------------------------------------------------------

The optimization will be done in new redundant internal coordinates
Making redundant internal coordinates   ...  (new redundants) done
Evaluating the initial hessian          ...  (Almloef) done
Evaluating the coordinates              ...  done
Calculating the B-matrix                .... done
Calculating the G-matrix                .... done
Diagonalizing the G-matrix              .... done
Small eigenvalue found = 4.633e-03
Small eigenvalue found = 6.291e-03
Small eigenvalue found = 1.619e-02
Small eigenvalue found = 2.194e-02
The first mode is                       ....   82
The number of degrees of freedom        ....   90

    -----------------------------------------------------------------
                    Redundant Internal Coordinates


    -----------------------------------------------------------------
         Definition                    Initial Value    Approx d2E/dq
    -----------------------------------------------------------------
      1. B(C   1,C   0)                  1.5113         0.400158   
      2. B(C   2,C   1)                  1.4997         0.417631   
      3. B(C   3,C   2)                  1.5032         0.412268   
      4. B(C   4,C   3)                  1.5008         0.415846   
      5. B(C   5,C   4)                  1.5241         0.381769   
      6. B(C   6,C   5)                  1.5136         0.396787   
      7. B(C   7,C   6)                  1.5193         0.388548   
      8. B(C   8,C   7)                  1.5043         0.410532   
      9. B(C   9,C   8)                  1.5042         0.410782   
     10. B(H  10,C   0)                  1.0988         0.348674   
     11. B(H  11,C   0)                  1.1087         0.336213   
     12. B(H  12,C   0)                  1.1163         0.326902   
     13. B(H  13,C   1)                  1.1054         0.340273   
     14. B(H  14,C   1)                  1.1048         0.341097   
     15. B(H  15,C   2)                  1.1024         0.344064   
     16. B(H  16,C   2)                  1.1182         0.324606   
     17. B(H  17,C   3)                  1.0996         0.347660   
     18. B(H  18,C   3)                  1.1087         0.336164   
     19. B(H  19,C   4)                  1.1002         0.346821   
     20. B(H  20,C   4)                  1.1131         0.330826   
     21. B(H  21,C   5)                  1.1198         0.322748   
     22. B(H  22,C   5)                  1.1132         0.330646   
     23. B(H  23,C   6)                  1.1133         0.330535   
     24. B(H  24,C   6)                  1.1072         0.338034   
     25. B(H  25,C   7)                  1.1145         0.329120   
     26. B(H  26,C   7)                  1.1118         0.332401   
     27. B(H  27,C   8)                  1.1190         0.323761   
     28. B(H  28,C   8)                  1.1176         0.325353   
     29. B(H  29,C   9)                  1.1189         0.323812   
     30. B(H  30,C   9)                  1.1157         0.327704   
     31. B(H  31,C   9)                  1.1134         0.330403   
     32. A(C   1,C   0,H  12)          110.1486         0.322833   
     33. A(C   1,C   0,H  11)          112.5272         0.324324   
     34. A(H  11,C   0,H  12)          105.4839         0.283425   
     35. A(C   1,C   0,H  10)          112.6724         0.326271   
     36. A(H  10,C   0,H  11)          109.5102         0.286283   
     37. A(H  10,C   0,H  12)          106.0559         0.285033   
     38. A(H  13,C   1,H  14)          113.7868         0.285838   
     39. A(C   2,C   1,H  14)          108.8307         0.327389   
     40. A(C   0,C   1,H  14)          108.0118         0.325094   
     41. A(C   0,C   1,H  13)          108.6348         0.324965   
     42. A(C   0,C   1,C   2)          109.9919         0.374774   
     43. A(C   2,C   1,H  13)          107.5614         0.327258   
     44. A(C   3,C   2,H  15)          113.9856         0.327159   
     45. A(C   3,C   2,H  16)          106.3690         0.324041   
     46. A(C   1,C   2,H  16)          106.9910         0.324730   
     47. A(C   1,C   2,H  15)          110.0295         0.327856   
     48. A(C   1,C   2,C   3)          113.0334         0.376709   
     49. A(H  15,C   2,H  16)          105.8607         0.284132   
     50. A(C   4,C   3,H  18)          108.7383         0.326374   
     51. A(C   4,C   3,H  17)          108.0515         0.328187   
     52. A(C   2,C   3,C   4)          113.6856         0.376430   
     53. A(C   2,C   3,H  17)          109.3129         0.327720   
     54. A(C   2,C   3,H  18)          107.1192         0.325910   
     55. A(H  17,C   3,H  18)          109.9047         0.286146   
     56. A(C   5,C   4,H  19)          107.1861         0.323475   
     57. A(C   3,C   4,H  19)          114.2423         0.328056   
     58. A(C   3,C   4,C   5)          107.4435         0.371473   
     59. A(C   5,C   4,H  20)          106.5407         0.320982   
     60. A(C   3,C   4,H  20)          107.9672         0.325515   
     61. A(H  19,C   4,H  20)          113.0450         0.285326   
     62. A(C   4,C   5,C   6)          111.5357         0.368490   
     63. A(C   6,C   5,H  22)          106.1963         0.322988   
     64. A(C   4,C   5,H  22)          111.4346         0.320954   
     65. A(C   6,C   5,H  21)          110.9100         0.321711   
     66. A(C   4,C   5,H  21)          111.3055         0.319688   
     67. A(H  21,C   5,H  22)          105.1671         0.282132   
     68. A(C   5,C   6,C   7)          111.9858         0.369605   
     69. A(H  23,C   6,H  24)          106.6601         0.284150   
     70. A(C   7,C   6,H  24)          109.7894         0.323047   
     71. A(C   5,C   6,H  24)          112.8348         0.324161   
     72. A(C   7,C   6,H  23)          105.8706         0.321862   
     73. A(C   5,C   6,H  23)          109.3243         0.322970   
     74. A(C   6,C   7,C   8)          109.6434         0.371776   
     75. A(H  25,C   7,H  26)          108.1733         0.283221   
     76. A(C   8,C   7,H  26)          110.1540         0.325082   
     77. A(C   6,C   7,H  26)          111.4962         0.322159   
     78. A(C   8,C   7,H  25)          108.5352         0.324552   
     79. A(C   6,C   7,H  25)          108.7681         0.321636   
     80. A(H  27,C   8,H  28)          104.9069         0.281564   
     81. A(C   9,C   8,H  28)          112.9088         0.323971   
     82. A(C   7,C   8,H  28)          108.7895         0.323939   
     83. A(C   9,C   8,H  27)          108.2262         0.323711   
     84. A(C   7,C   8,H  27)          110.4351         0.323678   
     85. A(C   7,C   8,C   9)          111.3817         0.375361   
     86. A(H  30,C   9,H  31)          105.3525         0.282767   
     87. A(H  29,C   9,H  31)          110.5716         0.282243   
     88. A(C   8,C   9,H  31)          113.0881         0.324792   
     89. A(H  29,C   9,H  30)          105.2685         0.281885   
     90. A(C   8,C   9,H  30)          110.3286         0.324355   
     91. A(C   8,C   9,H  29)          111.7506         0.323719   
     92. D(C   2,C   1,C   0,H  11)     49.1727         0.012704   
     93. D(C   2,C   1,C   0,H  12)    -68.2173         0.012704   
     94. D(H  13,C   1,C   0,H  11)    -68.3127         0.012704   
     95. D(H  14,C   1,C   0,H  11)    167.8229         0.012704   
     96. D(H  13,C   1,C   0,H  10)     56.0973         0.012704   
     97. D(C   2,C   1,C   0,H  10)    173.5827         0.012704   
     98. D(H  14,C   1,C   0,H  12)     50.4329         0.012704   
     99. D(H  14,C   1,C   0,H  10)    -67.7671         0.012704   
    100. D(H  13,C   1,C   0,H  12)    174.2973         0.012704   
    101. D(C   3,C   2,C   1,H  13)    -92.3731         0.013803   
    102. D(C   3,C   2,C   1,H  14)     31.3309         0.013803   
    103. D(H  15,C   2,C   1,H  13)     36.3204         0.013803   
    104. D(H  15,C   2,C   1,H  14)    160.0244         0.013803   
    105. D(C   3,C   2,C   1,C   0)    149.4767         0.013803   
    106. D(H  16,C   2,C   1,H  13)    150.8752         0.013803   
    107. D(H  16,C   2,C   1,H  14)    -85.4208         0.013803   
    108. D(H  16,C   2,C   1,C   0)     32.7250         0.013803   
    109. D(H  15,C   2,C   1,C   0)    -81.8299         0.013803   
    110. D(H  18,C   3,C   2,C   1)    -53.7585         0.013460   
    111. D(H  17,C   3,C   2,H  16)    -55.6801         0.013460   
    112. D(H  18,C   3,C   2,H  15)    179.6207         0.013460   
    113. D(H  17,C   3,C   2,H  15)     60.5805         0.013460   
    114. D(C   4,C   3,C   2,H  15)    -60.2354         0.013460   
    115. D(H  17,C   3,C   2,C   1)   -172.7986         0.013460   
    116. D(H  18,C   3,C   2,H  16)     63.3601         0.013460   
    117. D(C   4,C   3,C   2,H  16)   -176.4961         0.013460   
    118. D(C   4,C   3,C   2,C   1)     66.3854         0.013460   
    119. D(C   5,C   4,C   3,H  18)    -44.6875         0.013688   
    120. D(C   5,C   4,C   3,H  17)     74.5665         0.013688   
    121. D(H  19,C   4,C   3,C   2)    -45.1508         0.013688   
    122. D(C   5,C   4,C   3,C   2)   -163.9124         0.013688   
    123. D(H  20,C   4,C   3,H  18)   -159.2456         0.013688   
    124. D(H  20,C   4,C   3,H  17)    -39.9916         0.013688   
    125. D(H  20,C   4,C   3,C   2)     81.5296         0.013688   
    126. D(H  19,C   4,C   3,H  18)     74.0740         0.013688   
    127. D(H  19,C   4,C   3,H  17)   -166.6720         0.013688   
    128. D(H  22,C   5,C   4,H  20)   -119.0135         0.011611   
    129. D(H  22,C   5,C   4,H  19)      2.2713         0.011611   
    130. D(H  22,C   5,C   4,C   3)    125.4797         0.011611   
    131. D(H  21,C   5,C   4,H  20)    123.9343         0.011611   
    132. D(H  21,C   5,C   4,H  19)   -114.7809         0.011611   
    133. D(H  21,C   5,C   4,C   3)      8.4275         0.011611   
    134. D(C   6,C   5,C   4,H  20)     -0.5192         0.011611   
    135. D(C   6,C   5,C   4,H  19)    120.7656         0.011611   
    136. D(C   6,C   5,C   4,C   3)   -116.0260         0.011611   
    137. D(H  24,C   6,C   5,H  22)    131.1540         0.012499   
    138. D(H  24,C   6,C   5,H  21)   -115.1034         0.012499   
    139. D(H  24,C   6,C   5,C   4)      9.5716         0.012499   
    140. D(H  23,C   6,C   5,H  22)   -110.3365         0.012499   
    141. D(H  23,C   6,C   5,H  21)      3.4061         0.012499   
    142. D(H  23,C   6,C   5,C   4)    128.0811         0.012499   
    143. D(C   7,C   6,C   5,H  22)      6.6705         0.012499   
    144. D(C   7,C   6,C   5,H  21)    120.4131         0.012499   
    145. D(C   7,C   6,C   5,C   4)   -114.9119         0.012499   
    146. D(H  26,C   7,C   6,H  23)   -166.3171         0.012006   
    147. D(H  26,C   7,C   6,C   5)     74.6184         0.012006   
    148. D(H  25,C   7,C   6,H  24)   -170.7420         0.012006   
    149. D(H  25,C   7,C   6,H  23)     74.4829         0.012006   
    150. D(H  25,C   7,C   6,C   5)    -44.5816         0.012006   
    151. D(C   8,C   7,C   6,H  24)     70.7178         0.012006   
    152. D(C   8,C   7,C   6,H  23)    -44.0573         0.012006   
    153. D(H  26,C   7,C   6,H  24)    -51.5420         0.012006   
    154. D(C   8,C   7,C   6,C   5)   -163.1218         0.012006   
    155. D(H  28,C   8,C   7,H  26)    112.7126         0.013350   
    156. D(H  28,C   8,C   7,C   6)    -10.3437         0.013350   
    157. D(H  27,C   8,C   7,H  26)   -132.6582         0.013350   
    158. D(H  27,C   8,C   7,H  25)    -14.3987         0.013350   
    159. D(H  27,C   8,C   7,C   6)    104.2855         0.013350   
    160. D(C   9,C   8,C   7,H  26)    -12.3715         0.013350   
    161. D(H  28,C   8,C   7,H  25)   -129.0280         0.013350   
    162. D(C   9,C   8,C   7,H  25)    105.8879         0.013350   
    163. D(C   9,C   8,C   7,C   6)   -135.4278         0.013350   
    164. D(H  31,C   9,C   8,H  28)   -110.2923         0.013366   
    165. D(H  31,C   9,C   8,H  27)    134.0378         0.013366   
    166. D(H  31,C   9,C   8,C   7)     12.4580         0.013366   
    167. D(H  30,C   9,C   8,H  28)    132.0066         0.013366   
    168. D(H  30,C   9,C   8,H  27)     16.3367         0.013366   
    169. D(H  30,C   9,C   8,C   7)   -105.2431         0.013366   
    170. D(H  29,C   9,C   8,H  28)     15.2519         0.013366   
    171. D(H  29,C   9,C   8,H  27)   -100.4181         0.013366   
    172. D(H  29,C   9,C   8,C   7)    138.0021         0.013366   
    -----------------------------------------------------------------

Number of atoms                         .... 32
Number of degrees of freedom            .... 172

Time needed for optimization step       :     3.29 sec

         *************************************************************
         *                GEOMETRY OPTIMIZATION CYCLE   1            *
         *************************************************************
---------------------------------
CARTESIAN COORDINATES (ANGSTROEM)
---------------------------------
  C      5.196957   -0.352447   -0.101795
  C      3.696577   -0.472585   -0.237504
  C      3.019260    0.506666    0.674237
  C      1.698240    0.988401    0.142858
  C      0.650390   -0.083620    0.070458
  C     -0.463515    0.426771   -0.835951
  C     -1.764600    0.589185   -0.079805
  C     -2.835956   -0.365034   -0.579747
  C     -4.186897    0.099771   -0.108689
  C     -5.007453   -1.045100    0.418985
  H      5.736517   -1.125668   -0.665990
  H      5.530195   -0.365246    0.955545
  H      5.542936    0.626658   -0.511480
  H      3.393449   -1.487493    0.078757
  H      3.427707   -0.232365   -1.281771
  H      2.968797    0.097914    1.696813
  H      3.680652    1.406168    0.736958
  H      1.318230    1.793250    0.788509
  H      1.880095    1.378298   -0.878992
  H      1.005378   -1.034349   -0.354512
  H      0.206127   -0.198555    1.084543
  H     -0.171942    1.383411   -1.339735
  H     -0.672855   -0.286677   -1.664472
  H     -2.165142    1.613654   -0.251595
  H     -1.642524    0.475499    1.014770
  H     -2.828474   -0.360459   -1.694200
  H     -2.647489   -1.405408   -0.235984
  H     -4.751023    0.576470   -0.949275
  H     -4.045318    0.915766    0.641768
  H     -5.554615   -0.766556    1.354397
  H     -5.801262   -1.323199   -0.313974
  H     -4.412441   -1.973120    0.575392

----------------------------
CARTESIAN COORDINATES (A.U.)
----------------------------
  NO LB      ZA    FRAG     MASS         X           Y           Z
   0 C     6.0000    0    12.011    9.820825   -0.666028   -0.192365
   1 C     6.0000    0    12.011    6.985518   -0.893056   -0.448818
   2 C     6.0000    0    12.011    5.705575    0.957460    1.274123
   3 C     6.0000    0    12.011    3.209209    1.867807    0.269962
   4 C     6.0000    0    12.011    1.229059   -0.158019    0.133146
   5 C     6.0000    0    12.011   -0.875916    0.806480   -1.579718
   6 C     6.0000    0    12.011   -3.334611    1.113398   -0.150810
   7 C     6.0000    0    12.011   -5.359180   -0.689814   -1.095563
   8 C     6.0000    0    12.011   -7.912089    0.188540   -0.205392
   9 C     6.0000    0    12.011   -9.462715   -1.974953    0.791767
  10 H     1.0000    0     1.008   10.840446   -2.127204   -1.258539
  11 H     1.0000    0     1.008   10.450554   -0.690215    1.805718
  12 H     1.0000    0     1.008   10.474631    1.184212   -0.966557
  13 H     1.0000    0     1.008    6.412689   -2.810954    0.148829
  14 H     1.0000    0     1.008    6.477427   -0.439106   -2.422196
  15 H     1.0000    0     1.008    5.610213    0.185031    3.206512
  16 H     1.0000    0     1.008    6.955424    2.657272    1.392649
  17 H     1.0000    0     1.008    2.491094    3.388751    1.490066
  18 H     1.0000    0     1.008    3.552865    2.604606   -1.661054
  19 H     1.0000    0     1.008    1.899889   -1.954636   -0.669931
  20 H     1.0000    0     1.008    0.389524   -0.375215    2.049489
  21 H     1.0000    0     1.008   -0.324923    2.614268   -2.531732
  22 H     1.0000    0     1.008   -1.271512   -0.541741   -3.145396
  23 H     1.0000    0     1.008   -4.091525    3.049364   -0.475446
  24 H     1.0000    0     1.008   -3.103921    0.898563    1.917637
  25 H     1.0000    0     1.008   -5.345041   -0.681169   -3.201574
  26 H     1.0000    0     1.008   -5.003029   -2.655836   -0.445945
  27 H     1.0000    0     1.008   -8.978132    1.089370   -1.793870
  28 H     1.0000    0     1.008   -7.644543    1.730547    1.212766
  29 H     1.0000    0     1.008  -10.496701   -1.448581    2.559439
  30 H     1.0000    0     1.008  -10.962796   -2.500484   -0.593325
  31 H     1.0000    0     1.008   -8.338305   -3.728656    1.087333

--------------------------------
INTERNAL COORDINATES (ANGSTROEM)
--------------------------------
 C      0   0   0     0.000000000000     0.00000000     0.00000000
 C      1   0   0     1.511287602055     0.00000000     0.00000000
 C      2   1   0     1.499654123647   109.99189549     0.00000000
 C      3   2   1     1.503172010206   113.03335284   149.47665724
 C      4   3   2     1.500819911562   113.68564031    66.38537922
 C      5   4   3     1.524093368920   107.44349244   196.08763422
 C      6   5   4     1.513590848921   111.53570724   243.97403787
 C      7   6   5     1.519302333988   111.98579713   245.08812890
 C      8   7   6     1.504320748002   109.64340026   196.87820805
 C      9   8   7     1.504154781282   111.38172333   224.57217734
 H      1   2   3     1.098777368927   112.67240120   173.58269137
 H      1   2   3     1.108683568312   112.52721611    49.17268512
 H      1   2   3     1.116328745796   110.14859758   291.78268093
 H      2   1   3     1.105416597021   108.63483512   242.51464865
 H      2   1   3     1.104758024451   108.01180244   118.65024335
 H      3   2   1     1.102400284674   110.02946588   278.17014984
 H      3   2   1     1.118247356138   106.99102373    32.72495861
 H      4   3   2     1.099570246370   109.31288832   187.20135854
 H      4   3   2     1.108723741125   107.11921667   306.24150784
 H      5   4   3     1.100227982050   114.24231427   314.84919352
 H      5   4   3     1.113080434928   107.96721429    81.52956460
 H      6   5   4     1.119809458160   111.30545608     8.42746446
 H      6   5   4     1.113228786793   111.43456233   125.47968079
 H      7   6   5     1.113320452442   109.32433081   128.08109888
 H      7   6   5     1.107213388194   112.83479408     9.57164773
 H      8   7   6     1.114487505609   108.76805211   315.41839186
 H      8   7   6     1.111787241397   111.49619375    74.61841871
 H      9   8   7     1.118957060782   110.43513174   104.28551379
 H      9   8   7     1.117621654280   108.78954480   349.65627708
 H     10   9   8     1.118914037772   111.75062913   138.00212621
 H     10   9   8     1.115661542746   110.32863432   254.75688789
 H     10   9   8     1.113428736019   113.08811074    12.45799647

---------------------------
INTERNAL COORDINATES (A.U.)
---------------------------
 C      0   0   0     0.000000000000     0.00000000     0.00000000
 C      1   0   0     2.855919677474     0.00000000     0.00000000
 C      2   1   0     2.833935589298   109.99189549     0.00000000
 C      3   2   1     2.840583431465   113.03335284   149.47665724
 C      4   3   2     2.836138609188   113.68564031    66.38537922
 C      5   4   3     2.880119069785   107.44349244   196.08763422
 C      6   5   4     2.860272183270   111.53570724   243.97403787
 C      7   6   5     2.871065325864   111.98579713   245.08812890
 C      8   7   6     2.842754231300   109.64340026   196.87820805
 C      9   8   7     2.842440599651   111.38172333   224.57217734
 H      1   2   3     2.076388309422   112.67240120   173.58269137
 H      1   2   3     2.095108313288   112.52721611    49.17268512
 H      1   2   3     2.109555604979   110.14859758   291.78268093
 H      2   1   3     2.088934632260   108.63483512   242.51464865
 H      2   1   3     2.087690110464   108.01180244   118.65024335
 H      3   2   1     2.083234627990   110.02946588   278.17014984
 H      3   2   1     2.113181253082   106.99102373    32.72495861
 H      4   3   2     2.077886630647   109.31288832   187.20135854
 H      4   3   2     2.095184228903   107.11921667   306.24150784
 H      5   4   3     2.079129570951   114.24231427   314.84919352
 H      5   4   3     2.103417187039   107.96721429    81.52956460
 H      6   5   4     2.116133198097   111.30545608     8.42746446
 H      6   5   4     2.103697531437   111.43456233   125.47968079
 H      7   6   5     2.103870754408   109.32433081   128.08109888
 H      7   6   5     2.092330075499   112.83479408     9.57164773
 H      8   7   6     2.106076165278   108.76805211   315.41839186
 H      8   7   6     2.100973405429   111.49619375    74.61841871
 H      9   8   7     2.114522400495   110.43513174   104.28551379
 H      9   8   7     2.111998847929   108.78954480   349.65627708
 H     10   9   8     2.114441098790   111.75062913   138.00212621
 H     10   9   8     2.108294773939   110.32863432   254.75688789
 H     10   9   8     2.104075380714   113.08811074    12.45799647

---------------------
BASIS SET INFORMATION
---------------------
There are 2 groups of distinct atoms

 Group   1 Type C   : 7s4p1d contracted to 3s2p1d pattern {511/31/1}
 Group   2 Type H   : 4s contracted to 2s pattern {31}

Atom   0C    basis set group =>   1
Atom   1C    basis set group =>   1
Atom   2C    basis set group =>   1
Atom   3C    basis set group =>   1
Atom   4C    basis set group =>   1
Atom   5C    basis set group =>   1
Atom   6C    basis set group =>   1
Atom   7C    basis set group =>   1
Atom   8C    basis set group =>   1
Atom   9C    basis set group =>   1
Atom  10H    basis set group =>   2
Atom  11H    basis set group =>   2
Atom  12H    basis set group =>   2
Atom  13H    basis set group =>   2
Atom  14H    basis set group =>   2
Atom  15H    basis set group =>   2
Atom  16H    basis set group =>   2
Atom  17H    basis set group =>   2
Atom  18H    basis set group =>   2
Atom  19H    basis set group =>   2
Atom  20H    basis set group =>   2
Atom  21H    basis set group =>   2
Atom  22H    basis set group =>   2
Atom  23H    basis set group =>   2
Atom  24H    basis set group =>   2
Atom  25H    basis set group =>   2
Atom  26H    basis set group =>   2
Atom  27H    basis set group =>   2
Atom  28H    basis set group =>   2
Atom  29H    basis set group =>   2
Atom  30H    basis set group =>   2
Atom  31H    basis set group =>   2
---------------------------------
AUXILIARY/J BASIS SET INFORMATION
---------------------------------
There are 2 groups of distinct atoms

 Group   1 Type C   : 12s5p4d2f1g contracted to 6s4p3d1f1g pattern {711111/2111/211/2/1}
 Group   2 Type H   : 5s2p1d contracted to 3s1p1d pattern {311/2/1}

Atom   0C    basis set group =>   1
Atom   1C    basis set group =>   1
Atom   2C    basis set group =>   1
Atom   3C    basis set group =>   1
Atom   4C    basis set group =>   1
Atom   5C    basis set group =>   1
Atom   6C    basis set group =>   1
Atom   7C    basis set group =>   1
Atom   8C    basis set group =>   1
Atom   9C    basis set group =>   1
Atom  10H    basis set group =>   2
Atom  11H    basis set group =>   2
Atom  12H    basis set group =>   2
Atom  13H    basis set group =>   2
Atom  14H    basis set group =>   2
Atom  15H    basis set group =>   2
Atom  16H    basis set group =>   2
Atom  17H    basis set group =>   2
Atom  18H    basis set group =>   2
Atom  19H    basis set group =>   2
Atom  20H    basis set group =>   2
Atom  21H    basis set group =>   2
Atom  22H    basis set group =>   2
Atom  23H    basis set group =>   2
Atom  24H    basis set group =>   2
Atom  25H    basis set group =>   2
Atom  26H    basis set group =>   2
Atom  27H    basis set group =>   2
Atom  28H    basis set group =>   2
Atom  29H    basis set group =>   2
Atom  30H    basis set group =>   2
Atom  31H    basis set group =>   2
------------------------------------------------------------------------------
                           ORCA GTO INTEGRAL CALCULATION
------------------------------------------------------------------------------

                         BASIS SET STATISTICS AND STARTUP INFO

 # of primitive gaussian shells          ...  208
 # of primitive gaussian functions       ...  328
 # of contracted shells                  ...  104
 # of contracted basis functions         ...  184
 Highest angular momentum                ...    2
 Maximum contraction depth               ...    5
 Integral package used                   ... LIBINT
 Integral threshhold            Thresh   ...  1.000e-12
 Primitive cut-off              TCut     ...  1.000e-14


------------------------------ INTEGRAL EVALUATION ----------------------------


 * One electron integrals 
 Pre-screening matrix                    ... done
 Shell pair data                         ... done (   0.001 sec)

-------------------------------------------------------------------------------
                                 ORCA SCF
-------------------------------------------------------------------------------

------------
SCF SETTINGS
------------
Hamiltonian:
 Density Functional     Method          .... DFT(GTOs)
 Exchange Functional    Exchange        .... B88
   X-Alpha parameter    XAlpha          ....  0.666667
   Becke's b parameter  XBeta           ....  0.004200
 Correlation Functional Correlation     .... LYP
 LDA part of GGA corr.  LDAOpt          .... VWN-5
 Gradients option       PostSCFGGA      .... off
 Hybrid DFT is turned on
   Fraction HF Exchange ScalHFX         ....  0.200000
   Scaling of DF-GGA-X  ScalDFX         ....  0.720000
   Scaling of DF-GGA-C  ScalDFC         ....  0.810000
   Scaling of DF-LDA-C  ScalLDAC        ....  1.000000
   Perturbative correction              ....  0.000000
   Density functional embedding theory  .... OFF
   NL short-range parameter             ....  4.800000


General Settings:
 Integral files         IntName         .... orca7
 Hartree-Fock type      HFTyp           .... UHF
 Total Charge           Charge          ....    0
 Multiplicity           Mult            ....    1
 Number of Electrons    NEL             ....   82
 Basis Dimension        Dim             ....  184
 Nuclear Repulsion      ENuc            ....    536.9467517365 Eh

Convergence Acceleration:
 DIIS                   CNVDIIS         .... on
   Start iteration      DIISMaxIt       ....    12
   Startup error        DIISStart       ....  0.200000
   # of expansion vecs  DIISMaxEq       ....     5
   Bias factor          DIISBfac        ....   1.050
   Max. coefficient     DIISMaxC        ....  10.000
 Newton-Raphson         CNVNR           .... off
 SOSCF                  CNVSOSCF        .... off
 Level Shifting         CNVShift        .... on
   Level shift para.    LevelShift      ....    0.2500
   Turn off err/grad.   ShiftErr        ....    0.0010
 Zerner damping         CNVZerner       .... off
 Static damping         CNVDamp         .... on
   Fraction old density DampFac         ....    0.7000
   Max. Damping (<1)    DampMax         ....    0.9800
   Min. Damping (>=0)   DampMin         ....    0.0000
   Turn off err/grad.   DampErr         ....    0.1000
 Fernandez-Rico         CNVRico         .... off

SCF Procedure:
 Maximum # iterations   MaxIter         ....   500
 SCF integral mode      SCFMode         .... Direct
   Integral package                     .... LIBINT
 Reset frequency        DirectResetFreq ....    20
 Integral Threshold     Thresh          ....  1.000e-12 Eh
 Primitive CutOff       TCut            ....  1.000e-14 Eh

Convergence Tolerance:
 Convergence Check Mode ConvCheckMode   .... Total+1el-Energy
 Convergence forced     ConvForced      .... 0
 Energy Change          TolE            ....  1.000e-09 Eh
 1-El. energy change                    ....  1.000e-06 Eh
 DIIS Error             TolErr          ....  1.000e-08


Diagonalization of the overlap matrix:
Smallest eigenvalue                        ... 1.218e-03
Time for diagonalization                   ...    0.003 sec
Threshold for overlap eigenvalues          ... 1.000e-08
Number of eigenvalues below threshold      ... 0
Time for construction of square roots      ...    4.323 sec
Total time needed                          ...    4.327 sec

-------------------
DFT GRID GENERATION
-------------------

General Integration Accuracy     IntAcc      ...  4.340
Radial Grid Type                 RadialGrid  ... Gauss-Chebyshev
Angular Grid (max. acc.)         AngularGrid ... Lebedev-110
Angular grid pruning method      GridPruning ... 3 (G Style)
Weight generation scheme         WeightScheme... Becke
Basis function cutoff            BFCut       ...    1.0000e-12
Integration weight cutoff        WCut        ...    1.0000e-14
Grids for H and He will be reduced by one unit

# of grid points (after initial pruning)     ...  34028 (   0.0 sec)
# of grid points (after weights+screening)   ...  30722 (   0.2 sec)
nearest neighbour list constructed           ...    0.0 sec
Grid point re-assignment to atoms done       ...    0.0 sec
Grid point division into batches done        ...    0.0 sec
Reduced shell lists constructed in    0.2 sec

Total number of grid points                  ...    30722
Total number of batches                      ...      493
Average number of points per batch           ...       62
Average number of grid points per atom       ...      960
Average number of shells per batch           ...    65.43 (62.92%)
Average number of basis functions per batch  ...   112.06 (60.90%)
Average number of large shells per batch     ...    49.08 (75.00%)
Average number of large basis fcns per batch ...    84.61 (75.50%)
Maximum spatial batch extension              ...  18.35, 25.60, 21.59 au
Average spatial batch extension              ...   3.14,  3.61,  3.54 au

Time for grid setup =    6.563 sec

------------------------------
INITIAL GUESS: MODEL POTENTIAL
------------------------------
Loading Hartree-Fock densities                     ... done
Calculating cut-offs                               ... done
Setting up the integral package                    ... done
Initializing the effective Hamiltonian             ... done
Starting the Coulomb interaction                   ... done (   0.2 sec)
Reading the grid                                   ... done
Mapping shells                                     ... done
Starting the XC term evaluation                    ... done (   0.5 sec)
  promolecular density results
     # of electrons  =     81.992092697
     EX              =    -57.987234305
     EC              =     -2.609319231
     EX+EC           =    -60.596553535
Transforming the Hamiltonian                       ... done (   0.0 sec)
Diagonalizing the Hamiltonian                      ... done (   0.0 sec)
Back transforming the eigenvectors                 ... done (   0.0 sec)
Now organizing SCF variables                       ... done
                      ------------------
                      INITIAL GUESS DONE (   7.4 sec)
                      ------------------
--------------
SCF ITERATIONS
--------------
ITER       Energy         Delta-E        Max-DP      RMS-DP      [F,P]     Damp
               ***  Starting incremental Fock matrix formation  ***
  0   -393.2649441626   0.000000000000 0.04188503  0.00142877  0.1744007 0.7000
  1   -393.4491677310  -0.184223568390 0.02578144  0.00101779  0.0906823 0.7000
                               ***Turning on DIIS***
  2   -393.5226814746  -0.073513743641 0.03541040  0.00167073  0.0337417 0.0000
  3   -393.6215406903  -0.098859215673 0.01745238  0.00068863  0.0502364 0.0000
  4   -393.6545729161  -0.033032225748 0.00374661  0.00020985  0.0112333 0.0000
  5   -393.6562598523  -0.001686936278 0.00137771  0.00007293  0.0021407 0.0000
  6   -393.6563598031  -0.000099950709 0.00062173  0.00003812  0.0007472 0.0000
  7   -393.6563681285  -0.000008325442 0.00020329  0.00000447  0.0003615 0.0000
  8   -393.6563688586  -0.000000730058 0.00003790  0.00000132  0.0000581 0.0000
  9   -393.6563688916  -0.000000033051 0.00001499  0.00000050  0.0000319 0.0000
 10   -393.6563688976  -0.000000005954 0.00000556  0.00000016  0.0000107 0.0000
 11   -393.6563688982  -0.000000000658 0.00000163  0.00000006  0.0000025 0.0000
 12   -393.6563688983  -0.000000000053 0.00000039  0.00000001  0.0000006 0.0000
 13   -393.6563688982   0.000000000036 0.00000016  0.00000000  0.0000003 0.0000
                 **** Energy Check signals convergence ****

 Fermi smearing  (ALPHA): E(HOMO(Eh)) = -0.282665 MUE = -0.110671 gap=   9.360 eV
 Fermi smearing   (BETA): E(HOMO(Eh)) = -0.282665 MUE = -0.110671 gap=   9.360 eV

N_FOD(alpha) =  0.000000
 N_FOD(beta) =  0.000000
       N_FOD =  0.000000

               *****************************************************
               *                     SUCCESS                       *
               *           SCF CONVERGED AFTER  14 CYCLES          *
               *****************************************************

Setting up the final grid:

General Integration Accuracy     IntAcc      ...  4.670
Radial Grid Type                 RadialGrid  ... Gauss-Chebyshev
Angular Grid (max. acc.)         AngularGrid ... Lebedev-302
Angular grid pruning method      GridPruning ... 3 (G Style)
Weight generation scheme         WeightScheme... Becke
Basis function cutoff            BFCut       ...    1.0000e-12
Integration weight cutoff        WCut        ...    1.0000e-14
Grids for H and He will be reduced by one unit

# of grid points (after initial pruning)     ... 136788 (   0.1 sec)
# of grid points (after weights+screening)   ... 121161 (   0.7 sec)
nearest neighbour list constructed           ...    0.0 sec
Grid point re-assignment to atoms done       ...    0.0 sec
Grid point division into batches done        ...    0.3 sec
Reduced shell lists constructed in    2.4 sec

Total number of grid points                  ...   121161
Total number of batches                      ...     1911
Average number of points per batch           ...       63
Average number of grid points per atom       ...     3786
Average number of shells per batch           ...    60.41 (58.09%)
Average number of basis functions per batch  ...   102.98 (55.97%)
Average number of large shells per batch     ...    44.59 (73.81%)
Average number of large basis fcns per batch ...    76.66 (74.44%)
Maximum spatial batch extension              ...  18.04, 18.73, 19.64 au
Average spatial batch extension              ...   2.12,  2.26,  2.28 au

Final grid set up in    6.7 sec
Final integration                            ... done (  13.2 sec)
Change in XC energy                          ...     0.000218465
Integrated number of electrons               ...    81.999849756
Previous integrated no of electrons          ...    82.001682208

----------------
TOTAL SCF ENERGY
----------------

Total Energy       :         -393.65615043 Eh          -10711.92844 eV

Components:
Nuclear Repulsion  :          536.94675174 Eh           14611.06393 eV
Electronic Energy  :         -930.60290217 Eh          -25322.99236 eV
One Electron Energy:        -1592.85461440 Eh          -43343.77761 eV
Two Electron Energy:          662.25171223 Eh           18020.78525 eV

Virial components:
Potential Energy   :         -783.42676091 Eh          -21318.12596 eV
Kinetic Energy     :          389.77061048 Eh           10606.19752 eV
Virial Ratio       :            2.00996879


DFT components:
N(Alpha)           :       40.999924877970 electrons
N(Beta)            :       40.999924877970 electrons
N(Total)           :       81.999849755940 electrons
E(X)               :      -47.197320784734 Eh       
E(C)               :       -3.089970715206 Eh       
E(XC)              :      -50.287291499940 Eh       
DFET-embed. en.    :        0.000000000000 Eh       

---------------
SCF CONVERGENCE
---------------

  Last Energy change         ...   -4.9852e-11  Tolerance :   1.0000e-09
  Last MAX-Density change    ...    3.8378e-08  Tolerance :   1.0000e-08
  Last RMS-Density change    ...    9.7791e-10  Tolerance :   1.0000e-09
  Last DIIS Error            ...    7.4442e-08  Tolerance :   1.0000e-08

             **** THE GBW FILE WAS UPDATED (orca7.gbw) ****
             **** DENSITY FILE WAS UPDATED (orca7.scfp) ****
             **** ENERGY FILE WAS UPDATED (orca7.en.tmp) ****
             **** THE GBW FILE WAS UPDATED (orca7.gbw) ****
             **** DENSITY FILE WAS UPDATED (orca7.scfp) ****
----------------
ORBITAL ENERGIES
----------------
                 SPIN UP ORBITALS
  NO   OCC          E(Eh)            E(eV) 
   0   1.0000     -10.166385      -276.6414 
   1   1.0000     -10.165988      -276.6306 
   2   1.0000     -10.164244      -276.5831 
   3   1.0000     -10.164055      -276.5780 
   4   1.0000     -10.163656      -276.5671 
   5   1.0000     -10.163572      -276.5649 
   6   1.0000     -10.163105      -276.5522 
   7   1.0000     -10.161887      -276.5190 
   8   1.0000     -10.161151      -276.4990 
   9   1.0000     -10.160843      -276.4906 
  10   1.0000      -0.812553       -22.1107 
  11   1.0000      -0.794646       -21.6234 
  12   1.0000      -0.764239       -20.7960 
  13   1.0000      -0.724260       -19.7081 
  14   1.0000      -0.679649       -18.4942 
  15   1.0000      -0.630522       -17.1574 
  16   1.0000      -0.596499       -16.2316 
  17   1.0000      -0.568584       -15.4720 
  18   1.0000      -0.564463       -15.3598 
  19   1.0000      -0.551858       -15.0168 
  20   1.0000      -0.473373       -12.8811 
  21   1.0000      -0.467123       -12.7111 
  22   1.0000      -0.455785       -12.4026 
  23   1.0000      -0.443666       -12.0728 
  24   1.0000      -0.427130       -11.6228 
  25   1.0000      -0.424108       -11.5406 
  26   1.0000      -0.405987       -11.0475 
  27   1.0000      -0.392691       -10.6857 
  28   1.0000      -0.383528       -10.4363 
  29   1.0000      -0.374494       -10.1905 
  30   1.0000      -0.357595        -9.7307 
  31   1.0000      -0.355431        -9.6718 
  32   1.0000      -0.344089        -9.3631 
  33   1.0000      -0.339992        -9.2517 
  34   1.0000      -0.334071        -9.0905 
  35   1.0000      -0.322241        -8.7686 
  36   1.0000      -0.320056        -8.7092 
  37   1.0000      -0.312506        -8.5037 
  38   1.0000      -0.307920        -8.3789 
  39   1.0000      -0.294840        -8.0230 
  40   1.0000      -0.282665        -7.6917 
  41   0.0000       0.061324         1.6687 
  42   0.0000       0.063003         1.7144 
  43   0.0000       0.070316         1.9134 
  44   0.0000       0.073078         1.9885 
  45   0.0000       0.075717         2.0604 
  46   0.0000       0.087717         2.3869 
  47   0.0000       0.090522         2.4632 
  48   0.0000       0.097274         2.6470 
  49   0.0000       0.104697         2.8489 
  50   0.0000       0.118655         3.2288 
  51   0.0000       0.126747         3.4490 
  52   0.0000       0.138349         3.7647 
  53   0.0000       0.143025         3.8919 
  54   0.0000       0.151791         4.1304 
  55   0.0000       0.153777         4.1845 
  56   0.0000       0.164072         4.4646 
  57   0.0000       0.167938         4.5698 
  58   0.0000       0.173686         4.7262 
  59   0.0000       0.175602         4.7784 
  60   0.0000       0.192362         5.2344 
  61   0.0000       0.196956         5.3594 
  62   0.0000       0.212222         5.7748 
  63   0.0000       0.218774         5.9531 
  64   0.0000       0.244521         6.6537 
  65   0.0000       0.260187         7.0801 
  66   0.0000       0.264298         7.1919 
  67   0.0000       0.269404         7.3308 
  68   0.0000       0.281825         7.6688 
  69   0.0000       0.284646         7.7456 
  70   0.0000       0.297881         8.1058 
  71   0.0000       0.311011         8.4630 
  72   0.0000       0.399185        10.8624 
  73   0.0000       0.423488        11.5237 
  74   0.0000       0.438931        11.9439 
  75   0.0000       0.444957        12.1079 
  76   0.0000       0.447236        12.1699 
  77   0.0000       0.450222        12.2512 
  78   0.0000       0.461410        12.5556 
  79   0.0000       0.482785        13.1372 
  80   0.0000       0.508359        13.8331 
  81   0.0000       0.516243        14.0477 
  82   0.0000       0.534266        14.5381 
  83   0.0000       0.554716        15.0946 
  84   0.0000       0.567643        15.4464 
  85   0.0000       0.578143        15.7321 
  86   0.0000       0.613691        16.6994 
  87   0.0000       0.619745        16.8641 
  88   0.0000       0.631477        17.1834 
  89   0.0000       0.641320        17.4512 
  90   0.0000       0.644257        17.5311 
  91   0.0000       0.650900        17.7119 
  92   0.0000       0.663233        18.0475 
  93   0.0000       0.667582        18.1658 
  94   0.0000       0.668643        18.1947 
  95   0.0000       0.673510        18.3271 
  96   0.0000       0.678430        18.4610 
  97   0.0000       0.682683        18.5767 
  98   0.0000       0.686337        18.6762 
  99   0.0000       0.693189        18.8626 
 100   0.0000       0.695433        18.9237 
 101   0.0000       0.703543        19.1444 
 102   0.0000       0.704413        19.1680 
 103   0.0000       0.709124        19.2962 
 104   0.0000       0.710272        19.3275 
 105   0.0000       0.714121        19.4322 
 106   0.0000       0.720124        19.5956 
 107   0.0000       0.723216        19.6797 
 108   0.0000       0.727732        19.8026 
 109   0.0000       0.731303        19.8998 
 110   0.0000       0.734036        19.9741 
 111   0.0000       0.738406        20.0931 
 112   0.0000       0.748323        20.3629 
 113   0.0000       0.750172        20.4132 
 114   0.0000       0.755256        20.5516 
 115   0.0000       0.763829        20.7848 
 116   0.0000       0.768915        20.9232 
 117   0.0000       0.771432        20.9917 
 118   0.0000       0.779399        21.2085 
 119   0.0000       0.804396        21.8887 
 120   0.0000       0.815859        22.2007 
 121   0.0000       0.841604        22.9012 
 122   0.0000       0.857523        23.3344 
 123   0.0000       0.878120        23.8949 
 124   0.0000       0.940838        25.6015 
 125   0.0000       0.973427        26.4883 
 126   0.0000       0.988598        26.9011 
 127   0.0000       1.021536        27.7974 
 128   0.0000       1.041410        28.3382 
 129   0.0000       1.095756        29.8170 
 130   0.0000       1.124816        30.6078 
 131   0.0000       1.139782        31.0151 
 132   0.0000       1.196407        32.5559 
 133   0.0000       1.241411        33.7805 
 134   0.0000       1.386695        37.7339 
 135   0.0000       1.403752        38.1980 
 136   0.0000       1.522890        41.4399 
 137   0.0000       1.543072        41.9891 
 138   0.0000       1.586239        43.1638 
 139   0.0000       1.639622        44.6164 
 140   0.0000       1.685504        45.8649 
 141   0.0000       1.757972        47.8369 
 142   0.0000       1.765357        48.0378 
 143   0.0000       1.817962        49.4693 
 144   0.0000       1.825501        49.6744 
 145   0.0000       1.862463        50.6802 
 146   0.0000       1.876456        51.0610 
 147   0.0000       1.887196        51.3532 
 148   0.0000       1.909341        51.9558 
 149   0.0000       1.924040        52.3558 
 150   0.0000       1.930144        52.5219 
 151   0.0000       1.936081        52.6835 
 152   0.0000       1.940429        52.8018 
 153   0.0000       1.973547        53.7029 
 154   0.0000       1.977799        53.8186 
 155   0.0000       2.005925        54.5840 
 156   0.0000       2.025142        55.1069 
 157   0.0000       2.053785        55.8863 
 158   0.0000       2.067900        56.2704 
 159   0.0000       2.103484        57.2387 
 160   0.0000       2.121565        57.7307 
 161   0.0000       2.134916        58.0940 
 162   0.0000       2.187195        59.5166 
 163   0.0000       2.203338        59.9559 
 164   0.0000       2.226818        60.5948 
 165   0.0000       2.264724        61.6263 
 166   0.0000       2.279335        62.0239 
 167   0.0000       2.284204        62.1563 
 168   0.0000       2.316908        63.0463 
 169   0.0000       2.328252        63.3550 
 170   0.0000       2.342029        63.7299 
 171   0.0000       2.355248        64.0895 
 172   0.0000       2.412952        65.6598 
 173   0.0000       2.475380        67.3585 
 174   0.0000       2.482236        67.5451 
 175   0.0000       2.493488        67.8513 
 176   0.0000       2.539483        69.1029 
 177   0.0000       2.571893        69.9848 
 178   0.0000       2.621842        71.3439 
 179   0.0000       2.695277        73.3422 
 180   0.0000       2.724240        74.1303 
 181   0.0000       2.744322        74.6768 
 182   0.0000       2.788691        75.8841 
 183   0.0000       2.824376        76.8552 

                 SPIN DOWN ORBITALS
  NO   OCC          E(Eh)            E(eV) 
   0   1.0000     -10.166385      -276.6414 
   1   1.0000     -10.165988      -276.6306 
   2   1.0000     -10.164244      -276.5831 
   3   1.0000     -10.164055      -276.5780 
   4   1.0000     -10.163656      -276.5671 
   5   1.0000     -10.163572      -276.5649 
   6   1.0000     -10.163105      -276.5522 
   7   1.0000     -10.161887      -276.5190 
   8   1.0000     -10.161151      -276.4990 
   9   1.0000     -10.160843      -276.4906 
  10   1.0000      -0.812553       -22.1107 
  11   1.0000      -0.794646       -21.6234 
  12   1.0000      -0.764239       -20.7960 
  13   1.0000      -0.724260       -19.7081 
  14   1.0000      -0.679649       -18.4942 
  15   1.0000      -0.630522       -17.1574 
  16   1.0000      -0.596499       -16.2316 
  17   1.0000      -0.568584       -15.4720 
  18   1.0000      -0.564463       -15.3598 
  19   1.0000      -0.551858       -15.0168 
  20   1.0000      -0.473373       -12.8811 
  21   1.0000      -0.467123       -12.7111 
  22   1.0000      -0.455785       -12.4026 
  23   1.0000      -0.443666       -12.0728 
  24   1.0000      -0.427130       -11.6228 
  25   1.0000      -0.424108       -11.5406 
  26   1.0000      -0.405987       -11.0475 
  27   1.0000      -0.392691       -10.6857 
  28   1.0000      -0.383528       -10.4363 
  29   1.0000      -0.374494       -10.1905 
  30   1.0000      -0.357595        -9.7307 
  31   1.0000      -0.355431        -9.6718 
  32   1.0000      -0.344089        -9.3631 
  33   1.0000      -0.339992        -9.2517 
  34   1.0000      -0.334071        -9.0905 
  35   1.0000      -0.322241        -8.7686 
  36   1.0000      -0.320056        -8.7092 
  37   1.0000      -0.312506        -8.5037 
  38   1.0000      -0.307920        -8.3789 
  39   1.0000      -0.294840        -8.0230 
  40   1.0000      -0.282665        -7.6917 
  41   0.0000       0.061324         1.6687 
  42   0.0000       0.063003         1.7144 
  43   0.0000       0.070316         1.9134 
  44   0.0000       0.073078         1.9885 
  45   0.0000       0.075717         2.0604 
  46   0.0000       0.087717         2.3869 
  47   0.0000       0.090522         2.4632 
  48   0.0000       0.097274         2.6470 
  49   0.0000       0.104697         2.8489 
  50   0.0000       0.118655         3.2288 
  51   0.0000       0.126747         3.4490 
  52   0.0000       0.138349         3.7647 
  53   0.0000       0.143025         3.8919 
  54   0.0000       0.151791         4.1304 
  55   0.0000       0.153777         4.1845 
  56   0.0000       0.164072         4.4646 
  57   0.0000       0.167938         4.5698 
  58   0.0000       0.173686         4.7262 
  59   0.0000       0.175602         4.7784 
  60   0.0000       0.192362         5.2344 
  61   0.0000       0.196956         5.3594 
  62   0.0000       0.212222         5.7748 
  63   0.0000       0.218774         5.9531 
  64   0.0000       0.244521         6.6537 
  65   0.0000       0.260187         7.0801 
  66   0.0000       0.264298         7.1919 
  67   0.0000       0.269404         7.3308 
  68   0.0000       0.281825         7.6688 
  69   0.0000       0.284646         7.7456 
  70   0.0000       0.297881         8.1058 
  71   0.0000       0.311011         8.4630 
  72   0.0000       0.399185        10.8624 
  73   0.0000       0.423488        11.5237 
  74   0.0000       0.438931        11.9439 
  75   0.0000       0.444957        12.1079 
  76   0.0000       0.447236        12.1699 
  77   0.0000       0.450222        12.2512 
  78   0.0000       0.461410        12.5556 
  79   0.0000       0.482785        13.1372 
  80   0.0000       0.508359        13.8331 
  81   0.0000       0.516243        14.0477 
  82   0.0000       0.534266        14.5381 
  83   0.0000       0.554716        15.0946 
  84   0.0000       0.567643        15.4464 
  85   0.0000       0.578143        15.7321 
  86   0.0000       0.613691        16.6994 
  87   0.0000       0.619745        16.8641 
  88   0.0000       0.631477        17.1834 
  89   0.0000       0.641320        17.4512 
  90   0.0000       0.644257        17.5311 
  91   0.0000       0.650900        17.7119 
  92   0.0000       0.663233        18.0475 
  93   0.0000       0.667582        18.1658 
  94   0.0000       0.668643        18.1947 
  95   0.0000       0.673510        18.3271 
  96   0.0000       0.678430        18.4610 
  97   0.0000       0.682683        18.5767 
  98   0.0000       0.686337        18.6762 
  99   0.0000       0.693189        18.8626 
 100   0.0000       0.695433        18.9237 
 101   0.0000       0.703543        19.1444 
 102   0.0000       0.704413        19.1680 
 103   0.0000       0.709124        19.2962 
 104   0.0000       0.710272        19.3275 
 105   0.0000       0.714121        19.4322 
 106   0.0000       0.720124        19.5956 
 107   0.0000       0.723216        19.6797 
 108   0.0000       0.727732        19.8026 
 109   0.0000       0.731303        19.8998 
 110   0.0000       0.734036        19.9741 
 111   0.0000       0.738406        20.0931 
 112   0.0000       0.748323        20.3629 
 113   0.0000       0.750172        20.4132 
 114   0.0000       0.755256        20.5516 
 115   0.0000       0.763829        20.7848 
 116   0.0000       0.768915        20.9232 
 117   0.0000       0.771432        20.9917 
 118   0.0000       0.779399        21.2085 
 119   0.0000       0.804396        21.8887 
 120   0.0000       0.815859        22.2007 
 121   0.0000       0.841604        22.9012 
 122   0.0000       0.857523        23.3344 
 123   0.0000       0.878120        23.8949 
 124   0.0000       0.940838        25.6015 
 125   0.0000       0.973427        26.4883 
 126   0.0000       0.988598        26.9011 
 127   0.0000       1.021536        27.7974 
 128   0.0000       1.041410        28.3382 
 129   0.0000       1.095756        29.8170 
 130   0.0000       1.124816        30.6078 
 131   0.0000       1.139782        31.0151 
 132   0.0000       1.196407        32.5559 
 133   0.0000       1.241411        33.7805 
 134   0.0000       1.386695        37.7339 
 135   0.0000       1.403752        38.1980 
 136   0.0000       1.522890        41.4399 
 137   0.0000       1.543072        41.9891 
 138   0.0000       1.586239        43.1638 
 139   0.0000       1.639622        44.6164 
 140   0.0000       1.685504        45.8649 
 141   0.0000       1.757972        47.8369 
 142   0.0000       1.765357        48.0378 
 143   0.0000       1.817962        49.4693 
 144   0.0000       1.825501        49.6744 
 145   0.0000       1.862463        50.6802 
 146   0.0000       1.876456        51.0610 
 147   0.0000       1.887196        51.3532 
 148   0.0000       1.909341        51.9558 
 149   0.0000       1.924040        52.3558 
 150   0.0000       1.930144        52.5219 
 151   0.0000       1.936081        52.6835 
 152   0.0000       1.940429        52.8018 
 153   0.0000       1.973547        53.7029 
 154   0.0000       1.977799        53.8186 
 155   0.0000       2.005925        54.5840 
 156   0.0000       2.025142        55.1069 
 157   0.0000       2.053785        55.8863 
 158   0.0000       2.067900        56.2704 
 159   0.0000       2.103484        57.2387 
 160   0.0000       2.121565        57.7307 
 161   0.0000       2.134916        58.0940 
 162   0.0000       2.187195        59.5166 
 163   0.0000       2.203338        59.9559 
 164   0.0000       2.226818        60.5948 
 165   0.0000       2.264724        61.6263 
 166   0.0000       2.279335        62.0239 
 167   0.0000       2.284204        62.1563 
 168   0.0000       2.316908        63.0463 
 169   0.0000       2.328252        63.3550 
 170   0.0000       2.342029        63.7299 
 171   0.0000       2.355248        64.0895 
 172   0.0000       2.412952        65.6598 
 173   0.0000       2.475380        67.3585 
 174   0.0000       2.482236        67.5451 
 175   0.0000       2.493488        67.8513 
 176   0.0000       2.539483        69.1029 
 177   0.0000       2.571893        69.9848 
 178   0.0000       2.621842        71.3439 
 179   0.0000       2.695277        73.3422 
 180   0.0000       2.724240        74.1303 
 181   0.0000       2.744322        74.6768 
 182   0.0000       2.788691        75.8841 
 183   0.0000       2.824376        76.8552 

                    ********************************
                    * MULLIKEN POPULATION ANALYSIS *
                    ********************************

------------------------------------------
FOD BASED MULLIKEN REDUCED ORBITAL CHARGES
------------------------------------------
  0 C s       :    -0.000000  s :    -0.000000
      pz      :     0.000000  p :     0.000000
      px      :     0.000000
      py      :     0.000000
      dz2     :     0.000000  d :     0.000000
      dxz     :     0.000000
      dyz     :     0.000000
      dx2y2   :     0.000000
      dxy     :     0.000000
  1 C s       :    -0.000000  s :    -0.000000
      pz      :     0.000000  p :     0.000000
      px      :     0.000000
      py      :     0.000000
      dz2     :     0.000000  d :     0.000000
      dxz     :     0.000000
      dyz     :     0.000000
      dx2y2   :     0.000000
      dxy     :     0.000000
  2 C s       :    -0.000000  s :    -0.000000
      pz      :     0.000000  p :     0.000000
      px      :     0.000000
      py      :     0.000000
      dz2     :     0.000000  d :     0.000000
      dxz     :     0.000000
      dyz     :     0.000000
      dx2y2   :     0.000000
      dxy     :     0.000000
  3 C s       :    -0.000000  s :    -0.000000
      pz      :     0.000000  p :     0.000000
      px      :     0.000000
      py      :     0.000000
      dz2     :     0.000000  d :     0.000000
      dxz     :     0.000000
      dyz     :     0.000000
      dx2y2   :     0.000000
      dxy     :     0.000000
  4 C s       :    -0.000000  s :    -0.000000
      pz      :     0.000000  p :     0.000000
      px      :     0.000000
      py      :     0.000000
      dz2     :     0.000000  d :     0.000000
      dxz     :     0.000000
      dyz     :     0.000000
      dx2y2   :     0.000000
      dxy     :     0.000000
  5 C s       :    -0.000000  s :    -0.000000
      pz      :     0.000000  p :     0.000000
      px      :     0.000000
      py      :     0.000000
      dz2     :     0.000000  d :     0.000000
      dxz     :     0.000000
      dyz     :     0.000000
      dx2y2   :     0.000000
      dxy     :     0.000000
  6 C s       :    -0.000000  s :    -0.000000
      pz      :     0.000000  p :     0.000000
      px      :     0.000000
      py      :     0.000000
      dz2     :     0.000000  d :     0.000000
      dxz     :     0.000000
      dyz     :     0.000000
      dx2y2   :     0.000000
      dxy     :     0.000000
  7 C s       :    -0.000000  s :    -0.000000
      pz      :     0.000000  p :     0.000000
      px      :     0.000000
      py      :     0.000000
      dz2     :     0.000000  d :     0.000000
      dxz     :     0.000000
      dyz     :     0.000000
      dx2y2   :     0.000000
      dxy     :     0.000000
  8 C s       :    -0.000000  s :    -0.000000
      pz      :     0.000000  p :     0.000000
      px      :     0.000000
      py      :     0.000000
      dz2     :     0.000000  d :     0.000000
      dxz     :     0.000000
      dyz     :     0.000000
      dx2y2   :     0.000000
      dxy     :     0.000000
  9 C s       :    -0.000000  s :    -0.000000
      pz      :     0.000000  p :     0.000000
      px      :     0.000000
      py      :     0.000000
      dz2     :     0.000000  d :     0.000000
      dxz     :     0.000000
      dyz     :     0.000000
      dx2y2   :     0.000000
      dxy     :     0.000000
 10 H s       :     0.000000  s :     0.000000
 11 H s       :     0.000000  s :     0.000000
 12 H s       :     0.000000  s :     0.000000
 13 H s       :     0.000000  s :     0.000000
 14 H s       :     0.000000  s :     0.000000
 15 H s       :     0.000000  s :     0.000000
 16 H s       :     0.000000  s :     0.000000
 17 H s       :     0.000000  s :     0.000000
 18 H s       :     0.000000  s :     0.000000
 19 H s       :     0.000000  s :     0.000000
 20 H s       :     0.000000  s :     0.000000
 21 H s       :     0.000000  s :     0.000000
 22 H s       :     0.000000  s :     0.000000
 23 H s       :     0.000000  s :     0.000000
 24 H s       :     0.000000  s :     0.000000
 25 H s       :     0.000000  s :     0.000000
 26 H s       :     0.000000  s :     0.000000
 27 H s       :     0.000000  s :     0.000000
 28 H s       :     0.000000  s :     0.000000
 29 H s       :     0.000000  s :     0.000000
 30 H s       :     0.000000  s :     0.000000
 31 H s       :     0.000000  s :     0.000000


                     *******************************
                     * LOEWDIN POPULATION ANALYSIS *
                     *******************************

-------------------------------------------
LOEWDIN ATOMIC CHARGES AND SPIN POPULATIONS
-------------------------------------------
   0 C :   -0.315362    0.000000
   1 C :   -0.221131    0.000000
   2 C :   -0.214425    0.000000
   3 C :   -0.209807    0.000000
   4 C :   -0.210475    0.000000
   5 C :   -0.211214    0.000000
   6 C :   -0.211353    0.000000
   7 C :   -0.211261    0.000000
   8 C :   -0.224636    0.000000
   9 C :   -0.319869    0.000000
  10 H :    0.107294    0.000000
  11 H :    0.107912    0.000000
  12 H :    0.105599    0.000000
  13 H :    0.110037    0.000000
  14 H :    0.107356    0.000000
  15 H :    0.105822    0.000000
  16 H :    0.102054    0.000000
  17 H :    0.108563    0.000000
  18 H :    0.104446    0.000000
  19 H :    0.109384    0.000000
  20 H :    0.107555    0.000000
  21 H :    0.105617    0.000000
  22 H :    0.106438    0.000000
  23 H :    0.103735    0.000000
  24 H :    0.104908    0.000000
  25 H :    0.106217    0.000000
  26 H :    0.102822    0.000000
  27 H :    0.109866    0.000000
  28 H :    0.105713    0.000000
  29 H :    0.110295    0.000000
  30 H :    0.109935    0.000000
  31 H :    0.107965    0.000000

----------------------------------------------------
LOEWDIN REDUCED ORBITAL CHARGES AND SPIN POPULATIONS
----------------------------------------------------
CHARGE
  0 C s       :     2.950954  s :     2.950954
      pz      :     1.108902  p :     3.288261
      px      :     1.069672
      py      :     1.109687
      dz2     :     0.017033  d :     0.076147
      dxz     :     0.014745
      dyz     :     0.010618
      dx2y2   :     0.016865
      dxy     :     0.016886
  1 C s       :     2.901988  s :     2.901988
      pz      :     1.078610  p :     3.223859
      px      :     1.061357
      py      :     1.083891
      dz2     :     0.024760  d :     0.095285
      dxz     :     0.015039
      dyz     :     0.013621
      dx2y2   :     0.025602
      dxy     :     0.016263
  2 C s       :     2.901816  s :     2.901816
      pz      :     1.080430  p :     3.216135
      px      :     1.062000
      py      :     1.073704
      dz2     :     0.024537  d :     0.096475
      dxz     :     0.013124
      dyz     :     0.017492
      dx2y2   :     0.014206
      dxy     :     0.027116
  3 C s       :     2.900916  s :     2.900916
      pz      :     1.079016  p :     3.209602
      px      :     1.053797
      py      :     1.076789
      dz2     :     0.018659  d :     0.099289
      dxz     :     0.015474
      dyz     :     0.020857
      dx2y2   :     0.018046
      dxy     :     0.026252
  4 C s       :     2.905619  s :     2.905619
      pz      :     1.070612  p :     3.212340
      px      :     1.055177
      py      :     1.086551
      dz2     :     0.019395  d :     0.092516
      dxz     :     0.021004
      dyz     :     0.012758
      dx2y2   :     0.016710
      dxy     :     0.022649
  5 C s       :     2.911310  s :     2.911310
      pz      :     1.074215  p :     3.209944
      px      :     1.050605
      py      :     1.085124
      dz2     :     0.009722  d :     0.089960
      dxz     :     0.022691
      dyz     :     0.024856
      dx2y2   :     0.019542
      dxy     :     0.013148
  6 C s       :     2.912034  s :     2.912034
      pz      :     1.077141  p :     3.205681
      px      :     1.049156
      py      :     1.079383
      dz2     :     0.028855  d :     0.093638
      dxz     :     0.017069
      dyz     :     0.005583
      dx2y2   :     0.020655
      dxy     :     0.021476
  7 C s       :     2.911182  s :     2.911182
      pz      :     1.083250  p :     3.206297
      px      :     1.045910
      py      :     1.077136
      dz2     :     0.027688  d :     0.093783
      dxz     :     0.012997
      dyz     :     0.008157
      dx2y2   :     0.025176
      dxy     :     0.019765
  8 C s       :     2.904207  s :     2.904207
      pz      :     1.089694  p :     3.227270
      px      :     1.061061
      py      :     1.076515
      dz2     :     0.009022  d :     0.093159
      dxz     :     0.018159
      dyz     :     0.026176
      dx2y2   :     0.018405
      dxy     :     0.021398
  9 C s       :     2.953899  s :     2.953899
      pz      :     1.111163  p :     3.291268
      px      :     1.096041
      py      :     1.084065
      dz2     :     0.010829  d :     0.074701
      dxz     :     0.021429
      dyz     :     0.009990
      dx2y2   :     0.011493
      dxy     :     0.020960
 10 H s       :     0.892706  s :     0.892706
 11 H s       :     0.892088  s :     0.892088
 12 H s       :     0.894401  s :     0.894401
 13 H s       :     0.889963  s :     0.889963
 14 H s       :     0.892644  s :     0.892644
 15 H s       :     0.894178  s :     0.894178
 16 H s       :     0.897946  s :     0.897946
 17 H s       :     0.891437  s :     0.891437
 18 H s       :     0.895554  s :     0.895554
 19 H s       :     0.890616  s :     0.890616
 20 H s       :     0.892445  s :     0.892445
 21 H s       :     0.894383  s :     0.894383
 22 H s       :     0.893562  s :     0.893562
 23 H s       :     0.896265  s :     0.896265
 24 H s       :     0.895092  s :     0.895092
 25 H s       :     0.893783  s :     0.893783
 26 H s       :     0.897178  s :     0.897178
 27 H s       :     0.890134  s :     0.890134
 28 H s       :     0.894287  s :     0.894287
 29 H s       :     0.889705  s :     0.889705
 30 H s       :     0.890065  s :     0.890065
 31 H s       :     0.892035  s :     0.892035

SPIN
  0 C s       :     0.000000  s :     0.000000
      pz      :     0.000000  p :     0.000000
      px      :     0.000000
      py      :     0.000000
      dz2     :     0.000000  d :     0.000000
      dxz     :     0.000000
      dyz     :     0.000000
      dx2y2   :     0.000000
      dxy     :     0.000000
  1 C s       :     0.000000  s :     0.000000
      pz      :     0.000000  p :     0.000000
      px      :     0.000000
      py      :     0.000000
      dz2     :     0.000000  d :     0.000000
      dxz     :     0.000000
      dyz     :     0.000000
      dx2y2   :     0.000000
      dxy     :     0.000000
  2 C s       :     0.000000  s :     0.000000
      pz      :     0.000000  p :     0.000000
      px      :     0.000000
      py      :     0.000000
      dz2     :     0.000000  d :     0.000000
      dxz     :     0.000000
      dyz     :     0.000000
      dx2y2   :     0.000000
      dxy     :     0.000000
  3 C s       :     0.000000  s :     0.000000
      pz      :     0.000000  p :     0.000000
      px      :     0.000000
      py      :     0.000000
      dz2     :     0.000000  d :     0.000000
      dxz     :     0.000000
      dyz     :     0.000000
      dx2y2   :     0.000000
      dxy     :     0.000000
  4 C s       :     0.000000  s :     0.000000
      pz      :     0.000000  p :     0.000000
      px      :     0.000000
      py      :     0.000000
      dz2     :     0.000000  d :     0.000000
      dxz     :     0.000000
      dyz     :     0.000000
      dx2y2   :     0.000000
      dxy     :     0.000000
  5 C s       :     0.000000  s :     0.000000
      pz      :     0.000000  p :     0.000000
      px      :     0.000000
      py      :     0.000000
      dz2     :     0.000000  d :     0.000000
      dxz     :     0.000000
      dyz     :     0.000000
      dx2y2   :     0.000000
      dxy     :     0.000000
  6 C s       :     0.000000  s :     0.000000
      pz      :     0.000000  p :     0.000000
      px      :     0.000000
      py      :     0.000000
      dz2     :     0.000000  d :     0.000000
      dxz     :     0.000000
      dyz     :     0.000000
      dx2y2   :     0.000000
      dxy     :     0.000000
  7 C s       :     0.000000  s :     0.000000
      pz      :     0.000000  p :     0.000000
      px      :     0.000000
      py      :     0.000000
      dz2     :     0.000000  d :     0.000000
      dxz     :     0.000000
      dyz     :     0.000000
      dx2y2   :     0.000000
      dxy     :     0.000000
  8 C s       :     0.000000  s :     0.000000
      pz      :     0.000000  p :     0.000000
      px      :     0.000000
      py      :     0.000000
      dz2     :     0.000000  d :     0.000000
      dxz     :     0.000000
      dyz     :     0.000000
      dx2y2   :     0.000000
      dxy     :     0.000000
  9 C s       :     0.000000  s :     0.000000
      pz      :     0.000000  p :     0.000000
      px      :     0.000000
      py      :     0.000000
      dz2     :     0.000000  d :     0.000000
      dxz     :     0.000000
      dyz     :     0.000000
      dx2y2   :     0.000000
      dxy     :     0.000000
 10 H s       :     0.000000  s :     0.000000
 11 H s       :     0.000000  s :     0.000000
 12 H s       :     0.000000  s :     0.000000
 13 H s       :     0.000000  s :     0.000000
 14 H s       :     0.000000  s :     0.000000
 15 H s       :     0.000000  s :     0.000000
 16 H s       :     0.000000  s :     0.000000
 17 H s       :     0.000000  s :     0.000000
 18 H s       :     0.000000  s :     0.000000
 19 H s       :     0.000000  s :     0.000000
 20 H s       :     0.000000  s :     0.000000
 21 H s       :     0.000000  s :     0.000000
 22 H s       :     0.000000  s :     0.000000
 23 H s       :     0.000000  s :     0.000000
 24 H s       :     0.000000  s :     0.000000
 25 H s       :     0.000000  s :     0.000000
 26 H s       :     0.000000  s :     0.000000
 27 H s       :     0.000000  s :     0.000000
 28 H s       :     0.000000  s :     0.000000
 29 H s       :     0.000000  s :     0.000000
 30 H s       :     0.000000  s :     0.000000
 31 H s       :     0.000000  s :     0.000000


                      *****************************
                      * MAYER POPULATION ANALYSIS *
                      *****************************

  NA   - Mulliken gross atomic population
  ZA   - Total nuclear charge
  QA   - Mulliken gross atomic charge
  VA   - Mayer's total valence
  BVA  - Mayer's bonded valence
  FA   - Mayer's free valence

  ATOM       NA         ZA         QA         VA         BVA        FA
  0 C      6.2540     6.0000    -0.2540     4.0215     4.0215    -0.0000
  1 C      6.1437     6.0000    -0.1437     4.1394     4.1394    -0.0000
  2 C      6.1198     6.0000    -0.1198     4.0798     4.0798     0.0000
  3 C      6.1676     6.0000    -0.1676     4.1561     4.1561     0.0000
  4 C      6.1287     6.0000    -0.1287     4.0833     4.0833     0.0000
  5 C      6.1094     6.0000    -0.1094     4.0281     4.0281     0.0000
  6 C      6.1841     6.0000    -0.1841     4.1395     4.1395     0.0000
  7 C      6.1679     6.0000    -0.1679     4.1195     4.1195     0.0000
  8 C      6.1444     6.0000    -0.1444     4.0869     4.0869    -0.0000
  9 C      6.2729     6.0000    -0.2729     4.0003     4.0003    -0.0000
 10 H      0.9125     1.0000     0.0875     0.9510     0.9510     0.0000
 11 H      0.9133     1.0000     0.0867     0.9559     0.9559     0.0000
 12 H      0.9181     1.0000     0.0819     0.9564     0.9564     0.0000
 13 H      0.9209     1.0000     0.0791     0.9461     0.9461     0.0000
 14 H      0.9294     1.0000     0.0706     0.9573     0.9573     0.0000
 15 H      0.9373     1.0000     0.0627     0.9531     0.9531     0.0000
 16 H      0.9391     1.0000     0.0609     0.9570     0.9570     0.0000
 17 H      0.9335     1.0000     0.0665     0.9463     0.9463     0.0000
 18 H      0.9254     1.0000     0.0746     0.9551     0.9551     0.0000
 19 H      0.9233     1.0000     0.0767     0.9578     0.9578     0.0000
 20 H      0.9264     1.0000     0.0736     0.9589     0.9589     0.0000
 21 H      0.9298     1.0000     0.0702     0.9604     0.9604     0.0000
 22 H      0.9310     1.0000     0.0690     0.9595     0.9595     0.0000
 23 H      0.9314     1.0000     0.0686     0.9454     0.9454     0.0000
 24 H      0.9192     1.0000     0.0808     0.9543     0.9543     0.0000
 25 H      0.9238     1.0000     0.0762     0.9473     0.9473     0.0000
 26 H      0.9256     1.0000     0.0744     0.9565     0.9565     0.0000
 27 H      0.9236     1.0000     0.0764     0.9443     0.9443     0.0000
 28 H      0.9169     1.0000     0.0831     0.9584     0.9584     0.0000
 29 H      0.9106     1.0000     0.0894     0.9543     0.9543     0.0000
 30 H      0.9126     1.0000     0.0874     0.9499     0.9499     0.0000
 31 H      0.9038     1.0000     0.0962     0.9617     0.9617     0.0000

  Mayer bond orders larger than 0.100000
B(  0-C ,  1-C ) :   1.1387 B(  0-C , 10-H ) :   0.9582 B(  0-C , 11-H ) :   0.9589 
B(  0-C , 12-H ) :   0.9578 B(  1-C ,  2-C ) :   1.1173 B(  1-C , 13-H ) :   0.9266 
[...]
      px      :     0.000000
      py      :     0.000000
      dz2     :     0.000000  d :     0.000000
      dxz     :     0.000000
      dyz     :     0.000000
      dx2y2   :     0.000000
      dxy     :     0.000000
  9 C s       :    -0.000000  s :    -0.000000
      pz      :     0.000000  p :     0.000000
      px      :     0.000000
      py      :     0.000000
      dz2     :     0.000000  d :     0.000000
      dxz     :     0.000000
      dyz     :     0.000000
      dx2y2   :     0.000000
      dxy     :     0.000000
 10 H s       :     0.000000  s :     0.000000
 11 H s       :     0.000000  s :     0.000000
 12 H s       :     0.000000  s :     0.000000
 13 H s       :     0.000000  s :     0.000000
 14 H s       :     0.000000  s :     0.000000
 15 H s       :     0.000000  s :     0.000000
 16 H s       :     0.000000  s :     0.000000
 17 H s       :     0.000000  s :     0.000000
 18 H s       :     0.000000  s :     0.000000
 19 H s       :     0.000000  s :     0.000000
 20 H s       :     0.000000  s :     0.000000
 21 H s       :     0.000000  s :     0.000000
 22 H s       :     0.000000  s :     0.000000
 23 H s       :     0.000000  s :     0.000000
 24 H s       :     0.000000  s :     0.000000
 25 H s       :     0.000000  s :     0.000000
 26 H s       :     0.000000  s :     0.000000
 27 H s       :     0.000000  s :     0.000000
 28 H s       :     0.000000  s :     0.000000
 29 H s       :     0.000000  s :     0.000000
 30 H s       :     0.000000  s :     0.000000
 31 H s       :     0.000000  s :     0.000000


                     *******************************
                     * LOEWDIN POPULATION ANALYSIS *
                     *******************************

-------------------------------------------
LOEWDIN ATOMIC CHARGES AND SPIN POPULATIONS
-------------------------------------------
   0 C :   -0.318876    0.000000
   1 C :   -0.220090    0.000000
   2 C :   -0.208510    0.000000
   3 C :   -0.212773    0.000000
   4 C :   -0.216045    0.000000
   5 C :   -0.206177    0.000000
   6 C :   -0.214296    0.000000
   7 C :   -0.214111    0.000000
   8 C :   -0.216991    0.000000
   9 C :   -0.319465    0.000000
  10 H :    0.110747    0.000000
  11 H :    0.108940    0.000000
  12 H :    0.108186    0.000000
  13 H :    0.106478    0.000000
  14 H :    0.104978    0.000000
  15 H :    0.103694    0.000000
  16 H :    0.105530    0.000000
  17 H :    0.107904    0.000000
  18 H :    0.104351    0.000000
  19 H :    0.108315    0.000000
  20 H :    0.104760    0.000000
  21 H :    0.105732    0.000000
  22 H :    0.105929    0.000000
  23 H :    0.107088    0.000000
  24 H :    0.105509    0.000000
  25 H :    0.104552    0.000000
  26 H :    0.105503    0.000000
  27 H :    0.105324    0.000000
  28 H :    0.105702    0.000000
  29 H :    0.110807    0.000000
  30 H :    0.109000    0.000000
  31 H :    0.108304    0.000000

----------------------------------------------------
LOEWDIN REDUCED ORBITAL CHARGES AND SPIN POPULATIONS
----------------------------------------------------
CHARGE
  0 C s       :     2.952463  s :     2.952463
      pz      :     1.103863  p :     3.292976
      px      :     1.081921
      py      :     1.107193
      dz2     :     0.009681  d :     0.073436
      dxz     :     0.020486
      dyz     :     0.015178
      dx2y2   :     0.019455
      dxy     :     0.008636
  1 C s       :     2.911814  s :     2.911814
      pz      :     1.081374  p :     3.217845
      px      :     1.048984
      py      :     1.087487
      dz2     :     0.014351  d :     0.090431
      dxz     :     0.021516
      dyz     :     0.019220
      dx2y2   :     0.021423
      dxy     :     0.013921
  2 C s       :     2.913309  s :     2.913309
      pz      :     1.073601  p :     3.205132
      px      :     1.046434
      py      :     1.085097
      dz2     :     0.015468  d :     0.090069
      dxz     :     0.021221
      dyz     :     0.016845
      dx2y2   :     0.021054
      dxy     :     0.015481
  3 C s       :     2.910875  s :     2.910875
      pz      :     1.070869  p :     3.211948
      px      :     1.059993
      py      :     1.081085
      dz2     :     0.013333  d :     0.089950
      dxz     :     0.028505
      dyz     :     0.015153
      dx2y2   :     0.018692
      dxy     :     0.014268
  4 C s       :     2.910689  s :     2.910689
      pz      :     1.070453  p :     3.215306
      px      :     1.062138
      py      :     1.082714
      dz2     :     0.013144  d :     0.090050
      dxz     :     0.028263
      dyz     :     0.016118
      dx2y2   :     0.017642
      dxy     :     0.014882
  5 C s       :     2.910782  s :     2.910782
      pz      :     1.071010  p :     3.205108
      px      :     1.051521
      py      :     1.082577
      dz2     :     0.010694  d :     0.090287
      dxz     :     0.022395
      dyz     :     0.021825
      dx2y2   :     0.016958
      dxy     :     0.018415
  6 C s       :     2.911003  s :     2.911003
      pz      :     1.078387  p :     3.213137
      px      :     1.060358
      py      :     1.074392
      dz2     :     0.007104  d :     0.090155
      dxz     :     0.023316
      dyz     :     0.026666
      dx2y2   :     0.013523
      dxy     :     0.019545
  7 C s       :     2.913221  s :     2.913221
      pz      :     1.076224  p :     3.210787
      px      :     1.059346
      py      :     1.075217
      dz2     :     0.006399  d :     0.090103
      dxz     :     0.023017
      dyz     :     0.027007
      dx2y2   :     0.015312
      dxy     :     0.018368
  8 C s       :     2.911569  s :     2.911569
      pz      :     1.077667  p :     3.214679
      px      :     1.063858
      py      :     1.073154
      dz2     :     0.006314  d :     0.090742
      dxz     :     0.023487
      dyz     :     0.026778
      dx2y2   :     0.015906
      dxy     :     0.018258
  9 C s       :     2.952486  s :     2.952486
      pz      :     1.103249  p :     3.293617
      px      :     1.101412
      py      :     1.088956
      dz2     :     0.003143  d :     0.073362
      dxz     :     0.020846
      dyz     :     0.022731
      dx2y2   :     0.012684
      dxy     :     0.013957
 10 H s       :     0.889253  s :     0.889253
 11 H s       :     0.891060  s :     0.891060
 12 H s       :     0.891814  s :     0.891814
 13 H s       :     0.893522  s :     0.893522
 14 H s       :     0.895022  s :     0.895022
 15 H s       :     0.896306  s :     0.896306
 16 H s       :     0.894470  s :     0.894470
 17 H s       :     0.892096  s :     0.892096
 18 H s       :     0.895649  s :     0.895649
 19 H s       :     0.891685  s :     0.891685
 20 H s       :     0.895240  s :     0.895240
 21 H s       :     0.894268  s :     0.894268
 22 H s       :     0.894071  s :     0.894071
 23 H s       :     0.892912  s :     0.892912
 24 H s       :     0.894491  s :     0.894491
 25 H s       :     0.895448  s :     0.895448
 26 H s       :     0.894497  s :     0.894497
 27 H s       :     0.894676  s :     0.894676
 28 H s       :     0.894298  s :     0.894298
 29 H s       :     0.889193  s :     0.889193
 30 H s       :     0.891000  s :     0.891000
 31 H s       :     0.891696  s :     0.891696

SPIN
  0 C s       :     0.000000  s :     0.000000
      pz      :     0.000000  p :     0.000000
      px      :     0.000000
      py      :     0.000000
      dz2     :     0.000000  d :     0.000000
      dxz     :     0.000000
      dyz     :     0.000000
      dx2y2   :     0.000000
      dxy     :     0.000000
  1 C s       :     0.000000  s :     0.000000
      pz      :     0.000000  p :     0.000000
      px      :     0.000000
      py      :     0.000000
      dz2     :     0.000000  d :     0.000000
      dxz     :     0.000000
      dyz     :     0.000000
      dx2y2   :     0.000000
      dxy     :     0.000000
  2 C s       :     0.000000  s :     0.000000
      pz      :     0.000000  p :     0.000000
      px      :     0.000000
      py      :     0.000000
      dz2     :     0.000000  d :     0.000000
      dxz     :     0.000000
      dyz     :     0.000000
      dx2y2   :     0.000000
      dxy     :     0.000000
  3 C s       :     0.000000  s :     0.000000
      pz      :     0.000000  p :     0.000000
      px      :     0.000000
      py      :     0.000000
      dz2     :     0.000000  d :     0.000000
      dxz     :     0.000000
      dyz     :     0.000000
      dx2y2   :     0.000000
      dxy     :     0.000000
  4 C s       :     0.000000  s :     0.000000
      pz      :     0.000000  p :     0.000000
      px      :     0.000000
      py      :     0.000000
      dz2     :     0.000000  d :     0.000000
      dxz     :     0.000000
      dyz     :     0.000000
      dx2y2   :     0.000000
      dxy     :     0.000000
  5 C s       :     0.000000  s :     0.000000
      pz      :     0.000000  p :     0.000000
      px      :     0.000000
      py      :     0.000000
      dz2     :     0.000000  d :     0.000000
      dxz     :     0.000000
      dyz     :     0.000000
      dx2y2   :     0.000000
      dxy     :     0.000000
  6 C s       :     0.000000  s :     0.000000
      pz      :     0.000000  p :     0.000000
      px      :     0.000000
      py      :     0.000000
      dz2     :     0.000000  d :     0.000000
      dxz     :     0.000000
      dyz     :     0.000000
      dx2y2   :     0.000000
      dxy     :     0.000000
  7 C s       :     0.000000  s :     0.000000
      pz      :     0.000000  p :     0.000000
      px      :     0.000000
      py      :     0.000000
      dz2     :     0.000000  d :     0.000000
      dxz     :     0.000000
      dyz     :     0.000000
      dx2y2   :     0.000000
      dxy     :     0.000000
  8 C s       :     0.000000  s :     0.000000
      pz      :     0.000000  p :     0.000000
      px      :     0.000000
      py      :     0.000000
      dz2     :     0.000000  d :     0.000000
      dxz     :     0.000000
      dyz     :     0.000000
      dx2y2   :     0.000000
      dxy     :     0.000000
  9 C s       :     0.000000  s :     0.000000
      pz      :     0.000000  p :     0.000000
      px      :     0.000000
      py      :     0.000000
      dz2     :     0.000000  d :     0.000000
      dxz     :     0.000000
      dyz     :     0.000000
      dx2y2   :     0.000000
      dxy     :     0.000000
 10 H s       :     0.000000  s :     0.000000
 11 H s       :     0.000000  s :     0.000000
 12 H s       :     0.000000  s :     0.000000
 13 H s       :     0.000000  s :     0.000000
 14 H s       :     0.000000  s :     0.000000
 15 H s       :     0.000000  s :     0.000000
 16 H s       :     0.000000  s :     0.000000
 17 H s       :     0.000000  s :     0.000000
 18 H s       :     0.000000  s :     0.000000
 19 H s       :     0.000000  s :     0.000000
 20 H s       :     0.000000  s :     0.000000
 21 H s       :     0.000000  s :     0.000000
 22 H s       :     0.000000  s :     0.000000
 23 H s       :     0.000000  s :     0.000000
 24 H s       :     0.000000  s :     0.000000
 25 H s       :     0.000000  s :     0.000000
 26 H s       :     0.000000  s :     0.000000
 27 H s       :     0.000000  s :     0.000000
 28 H s       :     0.000000  s :     0.000000
 29 H s       :     0.000000  s :     0.000000
 30 H s       :     0.000000  s :     0.000000
 31 H s       :     0.000000  s :     0.000000


                      *****************************
                      * MAYER POPULATION ANALYSIS *
                      *****************************

  NA   - Mulliken gross atomic population
  ZA   - Total nuclear charge
  QA   - Mulliken gross atomic charge
  VA   - Mayer's total valence
  BVA  - Mayer's bonded valence
  FA   - Mayer's free valence

  ATOM       NA         ZA         QA         VA         BVA        FA
  0 C      6.2411     6.0000    -0.2411     4.0087     4.0087     0.0000
  1 C      6.1756     6.0000    -0.1756     4.1307     4.1307     0.0000
  2 C      6.1159     6.0000    -0.1159     4.0833     4.0833     0.0000
  3 C      6.1452     6.0000    -0.1452     4.0936     4.0936     0.0000
  4 C      6.1789     6.0000    -0.1789     4.1054     4.1054     0.0000
  5 C      6.0728     6.0000    -0.0728     4.0798     4.0798     0.0000
  6 C      6.1516     6.0000    -0.1516     4.0970     4.0970     0.0000
  7 C      6.1842     6.0000    -0.1842     4.0928     4.0928     0.0000
  8 C      6.1474     6.0000    -0.1474     4.1209     4.1209     0.0000
  9 C      6.2381     6.0000    -0.2381     4.0052     4.0052     0.0000
 10 H      0.9081     1.0000     0.0919     0.9515     0.9515     0.0000
 11 H      0.9153     1.0000     0.0847     0.9576     0.9576     0.0000
 12 H      0.9142     1.0000     0.0858     0.9576     0.9576     0.0000
 13 H      0.9158     1.0000     0.0842     0.9478     0.9478     0.0000
 14 H      0.9331     1.0000     0.0669     0.9509     0.9509     0.0000
 15 H      0.9403     1.0000     0.0597     0.9573     0.9573     0.0000
 16 H      0.9350     1.0000     0.0650     0.9515     0.9515     0.0000
 17 H      0.9191     1.0000     0.0809     0.9514     0.9514     0.0000
 18 H      0.9387     1.0000     0.0613     0.9571     0.9571     0.0000
 19 H      0.9202     1.0000     0.0798     0.9513     0.9513     0.0000
 20 H      0.9278     1.0000     0.0722     0.9569     0.9569     0.0000
 21 H      0.9399     1.0000     0.0601     0.9530     0.9530     0.0000
 22 H      0.9364     1.0000     0.0636     0.9517     0.9517     0.0000
 23 H      0.9326     1.0000     0.0674     0.9515     0.9515     0.0000
 24 H      0.9227     1.0000     0.0773     0.9554     0.9554     0.0000
 25 H      0.9344     1.0000     0.0656     0.9549     0.9549     0.0000
 26 H      0.9198     1.0000     0.0802     0.9555     0.9555     0.0000
 27 H      0.9289     1.0000     0.0711     0.9502     0.9502     0.0000
 28 H      0.9302     1.0000     0.0698     0.9500     0.9500     0.0000
 29 H      0.9092     1.0000     0.0908     0.9516     0.9516     0.0000
 30 H      0.9138     1.0000     0.0862     0.9577     0.9577     0.0000
 31 H      0.9137     1.0000     0.0863     0.9581     0.9581     0.0000

  Mayer bond orders larger than 0.100000
B(  0-C ,  1-C ) :   1.1370 B(  0-C , 10-H ) :   0.9601 B(  0-C , 11-H ) :   0.9590 
B(  0-C , 12-H ) :   0.9593 B(  1-C ,  2-C ) :   1.1149 B(  1-C , 13-H ) :   0.9310 
B(  1-C , 14-H ) :   0.9350 B(  2-C ,  3-C ) :   1.1144 B(  2-C , 15-H ) :   0.9259 
B(  2-C , 16-H ) :   0.9320 B(  3-C ,  4-C ) :   1.1189 B(  3-C , 17-H ) :   0.9217 
B(  3-C , 18-H ) :   0.9256 B(  4-C ,  5-C ) :   1.1147 B(  4-C , 19-H ) :   0.9245 
B(  4-C , 20-H ) :   0.9226 B(  5-C ,  6-C ) :   1.1131 B(  5-C , 21-H ) :   0.9253 
B(  5-C , 22-H ) :   0.9274 B(  6-C ,  7-C ) :   1.1182 B(  6-C , 23-H ) :   0.9274 
B(  6-C , 24-H ) :   0.9227 B(  7-C ,  8-C ) :   1.1151 B(  7-C , 25-H ) :   0.9305 
B(  7-C , 26-H ) :   0.9237 B(  8-C ,  9-C ) :   1.1368 B(  8-C , 27-H ) :   0.9346 
B(  8-C , 28-H ) :   0.9335 B(  9-C , 29-H ) :   0.9590 B(  9-C , 30-H ) :   0.9592 
B(  9-C , 31-H ) :   0.9592 

-------
TIMINGS
-------

Total SCF time: 0 days 0 hours 3 min 28 sec 

Total time                  ....     208.461 sec
Sum of individual times     ....     175.509 sec  ( 84.2%)

Fock matrix formation       ....     152.550 sec  ( 73.2%)
  XC integration            ....      59.606 sec  ( 39.1% of F)
    Basis function eval.    ....       1.988 sec  (  3.3% of XC)
    Density eval.           ....       3.135 sec  (  5.3% of XC)
    XC-Functional eval.     ....       1.654 sec  (  2.8% of XC)
    XC-Potential eval.      ....       2.186 sec  (  3.7% of XC)
Diagonalization             ....       0.129 sec  (  0.1%)
Density matrix formation    ....      11.662 sec  (  5.6%)
Population analysis         ....       1.250 sec  (  0.6%)
Initial guess               ....       0.015 sec  (  0.0%)
Orbital Transformation      ....       0.000 sec  (  0.0%)
Orbital Orthonormalization  ....       0.008 sec  (  0.0%)
DIIS solution               ....       5.981 sec  (  2.9%)
Grid generation             ....       3.923 sec  (  1.9%)


-------------------------------------------------------------------------------
                          DFT DISPERSION CORRECTION                            
                                                                               
                              DFTD3 V3.1  Rev 1                                
                          USING Becke-Johnson damping                          
-------------------------------------------------------------------------------
The B3LYP functional is recognized
Active option DFTDOPT                   ...         4   

molecular C6(AA) [au] = 6609.642273 


            DFT-D V3
 parameters
 s6 scaling factor         :     1.0000 
 a1 scaling factor         :     0.3981 
 s8 scaling factor         :     1.9889 
 a2 scaling factor         :     4.4211 
 ad hoc parameters k1-k3   :    16.0000     1.3333    -4.0000 

 Edisp/kcal,au: -28.407361594318  -0.045270007447 
 E6   /kcal   : -14.281566922 
 E8   /kcal   : -14.125794672 
 % E8         :  49.725824151 

-------------------------   ----------------
Dispersion correction           -0.045270007
-------------------------   ----------------


-------------------------   --------------------
FINAL SINGLE POINT ENERGY      -393.748673308469
-------------------------   --------------------

                                *** OPTIMIZATION RUN DONE ***

                            ***************************************
                            *     ORCA property calculations      *
                            ***************************************

                                    ---------------------
                                    Active property flags
                                    ---------------------
   (+) Dipole Moment


------------------------------------------------------------------------------
                       ORCA ELECTRIC PROPERTIES CALCULATION
------------------------------------------------------------------------------

Dipole Moment Calculation                       ... on
Quadrupole Moment Calculation                   ... off
Polarizability Calculation                      ... off
GBWName                                         ... orca7.gbw
Electron density file                           ... orca7.scfp
The origin for moment calculation is the CENTER OF MASS  = (-0.023877,  0.085962 -0.200454)

-------------
DIPOLE MOMENT
-------------
                                X             Y             Z
Electronic contribution:     -0.41544       1.50527      -1.59622
Nuclear contribution   :      0.41408      -1.49077       1.58016
                        -----------------------------------------
Total Dipole Moment    :     -0.00136       0.01449      -0.01606
                        -----------------------------------------
Magnitude (a.u.)       :      0.02168
Magnitude (Debye)      :      0.05509



--------------------
Rotational spectrum 
--------------------
 
Rotational constants in cm-1:     0.080690     0.012892     0.011767 
Rotational constants in MHz :  2419.018850   386.490585   352.754278 

 Dipole components along the rotational axes: 
x,y,z [a.u.] :    -0.001328     0.021235     0.004140 
x,y,z [Debye]:    -0.003375     0.053975     0.010523 

 

Timings for individual modules:

Sum of individual times         ...     9359.060 sec (= 155.984 min)
GTO integral calculation        ...      225.740 sec (=   3.762 min)   2.4 %
SCF iterations                  ...     8081.997 sec (= 134.700 min)  86.4 %
SCF Gradient evaluation         ...      963.463 sec (=  16.058 min)  10.3 %
Geometry relaxation             ...       87.859 sec (=   1.464 min)   0.9 %
                             ****ORCA TERMINATED NORMALLY****
TOTAL RUN TIME: 0 days 2 hours 39 minutes 27 seconds 216 msec
