
                                 *****************
                                 * O   R   C   A *
                                 *****************

           --- An Ab Initio, DFT and Semiempirical electronic structure package ---

                  #######################################################
                  #                        -***-                        #
                  #          Department of theory and spectroscopy      #
                  #               Directorship: Frank Neese             #
                  #        Max Planck Institute fuer Kohlenforschung    #
                  #                Kaiser Wilhelm Platz 1               #
                  #                 D-45470 Muelheim/Ruhr               #
                  #                      Germany                        #
                  #                                                     #
                  #                  All rights reserved                #
                  #                        -***-                        #
                  #######################################################


                         Program Version 4.2.1 -  RELEASE  -


 With contributions from (in alphabetic order):
   Daniel Aravena         : Magnetic Suceptibility
   Michael Atanasov       : Ab Initio Ligand Field Theory (pilot matlab implementation)
   Alexander A. Auer      : GIAO ZORA, VPT2
   Ute Becker             : Parallelization
   Giovanni Bistoni       : ED, misc. LED, open-shell LED, HFLD
   Martin Brehm           : Molecular dynamics
   Dmytro Bykov           : SCF Hessian
   Vijay G. Chilkuri      : MRCI spin determinant printing, contributions to CSF-ICE
   Dipayan Datta          : RHF DLPNO-CCSD density
   Achintya Kumar Dutta   : EOM-CC, STEOM-CC
   Dmitry Ganyushin       : Spin-Orbit,Spin-Spin,Magnetic field MRCI
   Miquel Garcia          : C-PCM Hessian, Gaussian charge scheme
   Yang Guo               : DLPNO-NEVPT2, CIM, IAO-localization
   Andreas Hansen         : Spin unrestricted coupled pair/coupled cluster methods
   Benjamin Helmich-Paris : CASSCF linear response (MC-RPA)
   Lee Huntington         : MR-EOM, pCC
   Robert Izsak           : Overlap fitted RIJCOSX, COSX-SCS-MP3, EOM
   Christian Kollmar      : KDIIS, OOCD, Brueckner-CCSD(T), CCSD density
   Simone Kossmann        : Meta GGA functionals, TD-DFT gradient, OOMP2, MP2 Hessian
   Martin Krupicka        : AUTO-CI
   Lucas Lang             : DCDCAS
   Dagmar Lenk            : GEPOL surface, SMD
   Dimitrios Liakos       : Extrapolation schemes; Compound Job, initial MDCI parallelization
   Dimitrios Manganas     : Further ROCIS development; embedding schemes
   Dimitrios Pantazis     : SARC Basis sets
   Taras Petrenko         : DFT Hessian,TD-DFT gradient, ASA, ECA, R-Raman, ABS, FL, XAS/XES, NRVS
   Peter Pinski           : DLPNO-MP2, DLPNO-MP2 Gradient
   Christoph Reimann      : Effective Core Potentials
   Marius Retegan         : Local ZFS, SOC
   Christoph Riplinger    : Optimizer, TS searches, QM/MM, DLPNO-CCSD(T), (RO)-DLPNO pert. Triples
   Tobias Risthaus        : Range-separated hybrids, TD-DFT gradient, RPA, STAB
   Michael Roemelt        : Original ROCIS implementation
   Masaaki Saitow         : Open-shell DLPNO-CCSD energy and density
   Barbara Sandhoefer     : DKH picture change effects
   Avijit Sen             : IP-ROCIS
   Kantharuban Sivalingam : CASSCF convergence, NEVPT2, FIC-MRCI
   Bernardo de Souza      : ESD, SOC TD-DFT
   Georgi Stoychev        : AutoAux, RI-MP2 NMR
   Willem Van den Heuvel  : Paramagnetic NMR
   Boris Wezisla          : Elementary symmetry handling
   Frank Wennmohs         : Technical directorship


 We gratefully acknowledge several colleagues who have allowed us to
 interface, adapt or use parts of their codes:
   Stefan Grimme, W. Hujo, H. Kruse,             : VdW corrections, initial TS optimization,
                  C. Bannwarth                     DFT functionals, gCP, sTDA/sTD-DF
   Ed Valeev, F. Pavosevic, A. Kumar             : LibInt (2-el integral package), F12 methods
   Garnet Chan, S. Sharma, J. Yang, R. Olivares  : DMRG
   Ulf Ekstrom                                   : XCFun DFT Library
   Mihaly Kallay                                 : mrcc  (arbitrary order and MRCC methods)
   Andreas Klamt, Michael Diedenhofen            : otool_cosmo (COSMO solvation model)
   Jiri Pittner, Ondrej Demel                    : Mk-CCSD
   Frank Weinhold                                : gennbo (NPA and NBO analysis)
   Christopher J. Cramer and Donald G. Truhlar   : smd solvation model
   Lars Goerigk                                  : TD-DFT with DH, B97 family of functionals
   V. Asgeirsson, H. Jonsson                     : NEB implementation
   FAccTs GmbH                                   : IRC, NEB, NEB-TS, Multilevel, MM, QM/MM, CI optimization
   S Lehtola, MJT Oliveira, MAL Marques          : LibXC Library


 Your calculation uses the libint2 library for the computation of 2-el integrals
 For citations please refer to: http://libint.valeyev.net

 Your ORCA version has been built with support for libXC version: 4.2.3
 For citations please refer to: https://tddft.org/programs/libxc/

 This ORCA versions uses:
   CBLAS   interface :  Fast vector & matrix operations
   LAPACKE interface :  Fast linear algebra routines
   SCALAPACK package :  Parallel linear algebra routines


Your calculation utilizes the atom-pairwise dispersion correction
with the Becke-Johnson damping scheme (D3BJ)
Cite in your paper:
S.Grimme, S.Ehrlich, L.Goerigk, J Comput Chem, (2011), 32, 1456–1465 
S.Grimme, J.Antony, S.Ehrlich and H.Krieg, J.Chem.Phys., 132, (2010), 154104 
   

----- Orbital basis set information -----
Your calculation utilizes the basis: def2-SV(P)
   F. Weigend and R. Ahlrichs, Phys. Chem. Chem. Phys. 7, 3297 (2005).

----- AuxJ basis set information -----
Your calculation utilizes the auxiliary basis: def2/J
   F. Weigend, Phys. Chem. Chem. Phys. 8, 1057 (2006).

================================================================================
                                        WARNINGS
                       Please study these warnings very carefully!
================================================================================


WARNING: Geometry Optimization
  ===> : Switching off AutoStart
         For restart on a previous wavefunction, please use MOREAD

INFO   : the flag for use of LIBINT has been found!

================================================================================
                                       INPUT FILE
================================================================================
NAME = orca9.inp
|  1> ! UKS B3LYP def2-SV(P) def2/J D3BJ Opt
|  2> %scf Convergence VeryTight
|  3> SmearTemp 2000
|  4> maxiter 500
|  5> end
|  6> *xyz 0 1
|  7> C -4.742332 -0.100962 0.270222
|  8> C -3.65742 0.510814 -0.574989
|  9> C -2.283226 0.351472 0.014525
| 10> C -1.586199 -0.829705 -0.646943
| 11> C -0.125406 -0.469797 -0.890661
| 12> C 0.503746 0.198702 0.300339
| 13> C 1.569248 -0.631607 0.958009
| 14> C 2.79218 -0.838075 0.125161
| 15> C 3.387419 0.425379 -0.421909
| 16> C 4.319117 1.106899 0.570974
| 17> H -5.593611 0.611282 0.403012
| 18> H -4.384925 -0.411732 1.272261
| 19> H -5.186194 -1.005718 -0.196822
| 20> H -3.888137 1.600064 -0.695175
| 21> H -3.748126 0.049316 -1.58109
| 22> H -1.71917 1.301845 -0.164959
| 23> H -2.35903 0.231623 1.110799
| 24> H -2.046575 -1.103979 -1.606507
| 25> H -1.605079 -1.662196 0.094301
| 26> H 0.410961 -1.383021 -1.213918
| 27> H -0.145673 0.236276 -1.757863
| 28> H -0.309047 0.316759 1.062701
| 29> H 0.828142 1.234228 0.071265
| 30> H 1.125245 -1.622273 1.167433
| 31> H 1.814352 -0.177116 1.92605
| 32> H 3.570048 -1.294727 0.787729
| 33> H 2.637024 -1.59467 -0.682748
| 34> H 4.0452 0.125431 -1.277128
| 35> H 2.645824 1.12062 -0.851114
| 36> H 3.812126 1.899914 1.149928
| 37> H 5.225327 1.510659 0.061656
| 38> H 4.694192 0.294293 1.235296
| 39> *
| 40> 
| 41>                          ****END OF INPUT****
================================================================================

                       *****************************
                       * Geometry Optimization Run *
                       *****************************

Geometry optimization settings:
Update method            Update   .... BFGS
Choice of coordinates    CoordSys .... Z-matrix Internals
Initial Hessian          InHess   .... Almoef's Model

Convergence Tolerances:
Energy Change            TolE     ....  5.0000e-06 Eh
Max. Gradient            TolMAXG  ....  3.0000e-04 Eh/bohr
RMS Gradient             TolRMSG  ....  1.0000e-04 Eh/bohr
Max. Displacement        TolMAXD  ....  4.0000e-03 bohr
RMS Displacement         TolRMSD  ....  2.0000e-03 bohr
Strict Convergence                ....  False
------------------------------------------------------------------------------
                        ORCA OPTIMIZATION COORDINATE SETUP
------------------------------------------------------------------------------

The optimization will be done in new redundant internal coordinates
Making redundant internal coordinates   ...  (new redundants) done
Evaluating the initial hessian          ...  (Almloef) done
Evaluating the coordinates              ...  done
Calculating the B-matrix                .... done
Calculating the G-matrix                .... done
Diagonalizing the G-matrix              .... done
Small eigenvalue found = 4.482e-03
Small eigenvalue found = 8.125e-03
Small eigenvalue found = 1.506e-02
Small eigenvalue found = 2.440e-02
The first mode is                       ....   82
The number of degrees of freedom        ....   90

    -----------------------------------------------------------------
                    Redundant Internal Coordinates


    -----------------------------------------------------------------
         Definition                    Initial Value    Approx d2E/dq
    -----------------------------------------------------------------
      1. B(C   1,C   0)                  1.5052         0.409179   
      2. B(C   2,C   1)                  1.5038         0.411363   
      3. B(C   3,C   2)                  1.5227         0.383752   
      4. B(C   4,C   3)                  1.5241         0.381775   
      5. B(C   5,C   4)                  1.5037         0.411424   
      6. B(C   6,C   5)                  1.5024         0.413423   
      7. B(C   7,C   6)                  1.4939         0.426505   
      8. B(C   8,C   7)                  1.5000         0.417146   
      9. B(C   9,C   8)                  1.5226         0.383853   
     10. B(H  10,C   0)                  1.1179         0.325074   
     11. B(H  11,C   0)                  1.1083         0.336648   
     12. B(H  12,C   0)                  1.1107         0.333692   
     13. B(H  13,C   1)                  1.1199         0.322660   
     14. B(H  14,C   1)                  1.1106         0.333846   
     15. B(H  15,C   2)                  1.1196         0.322955   
     16. B(H  16,C   2)                  1.1054         0.340283   
     17. B(H  17,C   3)                  1.0991         0.348311   
     18. B(H  18,C   3)                  1.1148         0.328710   
     19. B(H  19,C   4)                  1.1073         0.337899   
     20. B(H  20,C   4)                  1.1185         0.324333   
     21. B(H  21,C   5)                  1.1206         0.321801   
     22. B(H  22,C   5)                  1.1091         0.335744   
     23. B(H  23,C   6)                  1.1056         0.340007   
     24. B(H  24,C   6)                  1.0972         0.350763   
     25. B(H  25,C   7)                  1.1192         0.323473   
     26. B(H  26,C   7)                  1.1177         0.325274   
     27. B(H  27,C   8)                  1.1198         0.322711   
     28. B(H  28,C   8)                  1.1034         0.342775   
     29. B(H  29,C   9)                  1.1050         0.340751   
     30. B(H  30,C   9)                  1.1152         0.328275   
     31. B(H  31,C   9)                  1.1146         0.328984   
     32. A(C   1,C   0,H  12)          112.5186         0.325112   
     33. A(C   1,C   0,H  11)          112.9049         0.325584   
     34. A(H  11,C   0,H  12)          106.2974         0.284389   
     35. A(C   1,C   0,H  10)          110.8931         0.323718   
     36. A(H  10,C   0,H  11)          108.4712         0.283235   
     37. A(H  10,C   0,H  12)          105.3450         0.282848   
     38. A(H  13,C   1,H  14)          106.8653         0.282541   
     39. A(C   2,C   1,H  14)          112.6896         0.325422   
     40. A(C   0,C   1,H  14)          106.3155         0.325137   
     41. A(C   0,C   1,H  13)          107.8839         0.323322   
     42. A(C   0,C   1,C   2)          113.2949         0.375238   
     43. A(C   2,C   1,H  13)          109.4754         0.323605   
     44. A(C   3,C   2,H  15)          110.9896         0.319992   
     45. A(C   3,C   2,H  16)          112.2165         0.322741   
     46. A(C   1,C   2,H  16)          109.7311         0.326446   
     47. A(C   1,C   2,H  15)          107.9140         0.323653   
     48. A(C   1,C   2,C   3)          109.2819         0.371112   
     49. A(H  15,C   2,H  16)          106.5922         0.283420   
     50. A(C   4,C   3,H  18)          107.3913         0.320646   
     51. A(C   4,C   3,H  17)          108.7114         0.323703   
     52. A(C   2,C   3,C   4)          108.9676         0.366385   
     53. A(C   2,C   3,H  17)          112.4023         0.323978   
     54. A(C   2,C   3,H  18)          106.4200         0.320917   
     55. A(H  17,C   3,H  18)          112.7716         0.285231   
     56. A(C   5,C   4,H  19)          113.2777         0.326076   
     57. A(C   3,C   4,H  19)          108.4329         0.322097   
     58. A(C   3,C   4,C   5)          112.2931         0.370792   
     59. A(C   5,C   4,H  20)          109.9398         0.323888   
     60. A(C   3,C   4,H  20)          104.8146         0.319945   
     61. A(H  19,C   4,H  20)          107.6415         0.283298   
     62. A(C   4,C   5,C   6)          113.4371         0.375917   
     63. A(C   6,C   5,H  22)          113.5148         0.325993   
     64. A(C   4,C   5,H  22)          111.9545         0.325733   
     65. A(C   6,C   5,H  21)          105.9507         0.323729   
     66. A(C   4,C   5,H  21)          106.3912         0.323471   
     67. A(H  21,C   5,H  22)          104.7322         0.282673   
     68. A(C   5,C   6,C   7)          114.3865         0.378264   
     69. A(H  23,C   6,H  24)          107.0833         0.287052   
     70. A(C   7,C   6,H  24)          111.4851         0.330046   
     71. A(C   5,C   6,H  24)          108.4050         0.328352   
     72. A(C   7,C   6,H  23)          108.0894         0.328352   
     73. A(C   5,C   6,H  23)          107.0557         0.326671   
     74. A(C   6,C   7,C   8)          114.3156         0.378852   
     75. A(H  25,C   7,H  26)          104.3714         0.281515   
     76. A(C   8,C   7,H  26)          111.2012         0.324777   
     77. A(C   6,C   7,H  26)          112.5129         0.325965   
     78. A(C   8,C   7,H  25)          106.4864         0.324481   
     79. A(C   6,C   7,H  25)          107.1756         0.325667   
     80. A(H  27,C   8,H  28)          105.4550         0.283708   
     81. A(C   9,C   8,H  28)          112.5123         0.323141   
     82. A(C   7,C   8,H  28)          113.9467         0.327591   
     83. A(C   9,C   8,H  27)          104.9788         0.319966   
     84. A(C   7,C   8,H  27)          106.6197         0.324356   
     85. A(C   7,C   8,C   9)          112.4586         0.372021   
     86. A(H  30,C   9,H  31)          105.2312         0.282654   
     87. A(H  29,C   9,H  31)          111.4274         0.284296   
     88. A(C   8,C   9,H  31)          105.5600         0.320975   
     89. A(H  29,C   9,H  30)          110.6270         0.284201   
     90. A(C   8,C   9,H  30)          111.1911         0.320862   
     91. A(C   8,C   9,H  29)          112.4649         0.322827   
     92. D(C   2,C   1,C   0,H  11)     10.1806         0.013264   
     93. D(C   2,C   1,C   0,H  12)   -110.1482         0.013264   
     94. D(H  13,C   1,C   0,H  11)   -111.1756         0.013264   
     95. D(H  14,C   1,C   0,H  11)    134.4877         0.013264   
     96. D(H  13,C   1,C   0,H  10)     10.7921         0.013264   
     97. D(C   2,C   1,C   0,H  10)    132.1483         0.013264   
     98. D(H  14,C   1,C   0,H  12)     14.1589         0.013264   
     99. D(H  14,C   1,C   0,H  10)   -103.5446         0.013264   
    100. D(H  13,C   1,C   0,H  12)    128.4956         0.013264   
    101. D(C   3,C   2,C   1,H  13)   -141.0523         0.013402   
    102. D(C   3,C   2,C   1,H  14)    -22.2757         0.013402   
    103. D(H  15,C   2,C   1,H  13)    -20.2612         0.013402   
    104. D(H  15,C   2,C   1,H  14)     98.5154         0.013402   
    105. D(C   3,C   2,C   1,C   0)     98.4903         0.013402   
    106. D(H  16,C   2,C   1,H  13)     95.5094         0.013402   
    107. D(H  16,C   2,C   1,H  14)   -145.7139         0.013402   
    108. D(H  16,C   2,C   1,C   0)    -24.9480         0.013402   
    109. D(H  15,C   2,C   1,C   0)   -140.7186         0.013402   
    110. D(H  18,C   3,C   2,C   1)   -104.7790         0.011725   
    111. D(H  17,C   3,C   2,H  16)    141.0879         0.011725   
    112. D(H  18,C   3,C   2,H  15)    136.3234         0.011725   
    113. D(H  17,C   3,C   2,H  15)    -99.7636         0.011725   
    114. D(C   4,C   3,C   2,H  15)     20.8063         0.011725   
    115. D(H  17,C   3,C   2,C   1)     19.1340         0.011725   
    116. D(H  18,C   3,C   2,H  16)     17.1749         0.011725   
    117. D(C   4,C   3,C   2,H  16)    -98.3423         0.011725   
    118. D(C   4,C   3,C   2,C   1)    139.7039         0.011725   
    119. D(C   5,C   4,C   3,H  18)    -70.0722         0.011611   
    120. D(C   5,C   4,C   3,H  17)    167.6300         0.011611   
    121. D(H  19,C   4,C   3,C   2)    170.7520         0.011611   
    122. D(C   5,C   4,C   3,C   2)     44.8177         0.011611   
    123. D(H  20,C   4,C   3,H  18)    170.6074         0.011611   
    124. D(H  20,C   4,C   3,H  17)     48.3096         0.011611   
    125. D(H  20,C   4,C   3,C   2)    -74.5027         0.011611   
    126. D(H  19,C   4,C   3,H  18)     55.8622         0.011611   
    127. D(H  19,C   4,C   3,H  17)    -66.4357         0.011611   
    128. D(H  22,C   5,C   4,H  20)     -0.9065         0.013406   
    129. D(H  22,C   5,C   4,H  19)    119.5594         0.013406   
    130. D(H  22,C   5,C   4,C   3)   -117.1833         0.013406   
    131. D(H  21,C   5,C   4,H  20)    112.9453         0.013406   
    132. D(H  21,C   5,C   4,H  19)   -126.5888         0.013406   
    133. D(H  21,C   5,C   4,C   3)     -3.3315         0.013406   
    134. D(C   6,C   5,C   4,H  20)   -130.9683         0.013406   
    135. D(C   6,C   5,C   4,H  19)    -10.5024         0.013406   
    136. D(C   6,C   5,C   4,C   3)    112.7549         0.013406   
    137. D(H  24,C   6,C   5,H  22)     62.9366         0.013533   
    138. D(H  24,C   6,C   5,H  21)    -51.4443         0.013533   
    139. D(H  24,C   6,C   5,C   4)   -167.7901         0.013533   
    140. D(H  23,C   6,C   5,H  22)    178.1459         0.013533   
    141. D(H  23,C   6,C   5,H  21)     63.7650         0.013533   
    142. D(H  23,C   6,C   5,C   4)    -52.5808         0.013533   
    143. D(C   7,C   6,C   5,H  22)    -62.1395         0.013533   
    144. D(C   7,C   6,C   5,H  21)   -176.5204         0.013533   
    145. D(C   7,C   6,C   5,C   4)     67.1338         0.013533   
    146. D(H  26,C   7,C   6,H  23)     42.8051         0.014384   
    147. D(H  26,C   7,C   6,C   5)    -76.3291         0.014384   
    148. D(H  25,C   7,C   6,H  24)     46.0735         0.014384   
    149. D(H  25,C   7,C   6,H  23)    -71.3578         0.014384   
    150. D(H  25,C   7,C   6,C   5)    169.5080         0.014384   
    151. D(C   8,C   7,C   6,H  24)    -71.6761         0.014384   
    152. D(C   8,C   7,C   6,H  23)    170.8927         0.014384   
    153. D(H  26,C   7,C   6,H  24)    160.2363         0.014384   
    154. D(C   8,C   7,C   6,C   5)     51.7585         0.014384   
    155. D(H  28,C   8,C   7,H  26)     83.6165         0.013772   
    156. D(H  28,C   8,C   7,C   6)    -45.1345         0.013772   
    157. D(H  27,C   8,C   7,H  26)    -32.2868         0.013772   
    158. D(H  27,C   8,C   7,H  25)     80.8197         0.013772   
    159. D(H  27,C   8,C   7,C   6)   -161.0378         0.013772   
    160. D(C   9,C   8,C   7,H  26)   -146.8219         0.013772   
    161. D(H  28,C   8,C   7,H  25)   -163.2771         0.013772   
    162. D(C   9,C   8,C   7,H  25)    -33.7155         0.013772   
    163. D(C   9,C   8,C   7,C   6)     84.4271         0.013772   
    164. D(H  31,C   9,C   8,H  28)    156.2633         0.011731   
    165. D(H  31,C   9,C   8,H  27)    -89.5633         0.011731   
    166. D(H  31,C   9,C   8,C   7)     25.9661         0.011731   
    167. D(H  30,C   9,C   8,H  28)    -90.1308         0.011731   
    168. D(H  30,C   9,C   8,H  27)     24.0426         0.011731   
    169. D(H  30,C   9,C   8,C   7)    139.5720         0.011731   
    170. D(H  29,C   9,C   8,H  28)     34.5614         0.011731   
    171. D(H  29,C   9,C   8,H  27)    148.7348         0.011731   
    172. D(H  29,C   9,C   8,C   7)    -95.7358         0.011731   
    -----------------------------------------------------------------

Number of atoms                         .... 32
Number of degrees of freedom            .... 172

Time needed for optimization step       :     3.41 sec

         *************************************************************
         *                GEOMETRY OPTIMIZATION CYCLE   1            *
         *************************************************************
---------------------------------
CARTESIAN COORDINATES (ANGSTROEM)
---------------------------------
  C     -4.742332   -0.100962    0.270222
  C     -3.657420    0.510814   -0.574989
  C     -2.283226    0.351472    0.014525
  C     -1.586199   -0.829705   -0.646943
  C     -0.125406   -0.469797   -0.890661
  C      0.503746    0.198702    0.300339
  C      1.569248   -0.631607    0.958009
  C      2.792180   -0.838075    0.125161
  C      3.387419    0.425379   -0.421909
  C      4.319117    1.106899    0.570974
  H     -5.593611    0.611282    0.403012
  H     -4.384925   -0.411732    1.272261
  H     -5.186194   -1.005718   -0.196822
  H     -3.888137    1.600064   -0.695175
  H     -3.748126    0.049316   -1.581090
  H     -1.719170    1.301845   -0.164959
  H     -2.359030    0.231623    1.110799
  H     -2.046575   -1.103979   -1.606507
  H     -1.605079   -1.662196    0.094301
  H      0.410961   -1.383021   -1.213918
  H     -0.145673    0.236276   -1.757863
  H     -0.309047    0.316759    1.062701
  H      0.828142    1.234228    0.071265
  H      1.125245   -1.622273    1.167433
  H      1.814352   -0.177116    1.926050
  H      3.570048   -1.294727    0.787729
  H      2.637024   -1.594670   -0.682748
  H      4.045200    0.125431   -1.277128
  H      2.645824    1.120620   -0.851114
  H      3.812126    1.899914    1.149928
  H      5.225327    1.510659    0.061656
  H      4.694192    0.294293    1.235296

----------------------------
CARTESIAN COORDINATES (A.U.)
----------------------------
  NO LB      ZA    FRAG     MASS         X           Y           Z
   0 C     6.0000    0    12.011   -8.961709   -0.190791    0.510646
   1 C     6.0000    0    12.011   -6.911522    0.965299   -1.086572
   2 C     6.0000    0    12.011   -4.314672    0.664186    0.027448
   3 C     6.0000    0    12.011   -2.997482   -1.567915   -1.222545
   4 C     6.0000    0    12.011   -0.236983   -0.887788   -1.683105
   5 C     6.0000    0    12.011    0.951942    0.375492    0.567558
   6 C     6.0000    0    12.011    2.965449   -1.193564    1.810375
   7 C     6.0000    0    12.011    5.276456   -1.583732    0.236520
   8 C     6.0000    0    12.011    6.401294    0.803850   -0.797292
   9 C     6.0000    0    12.011    8.161948    2.091736    1.078984
  10 H     1.0000    0     1.008  -10.570393    1.155156    0.761582
  11 H     1.0000    0     1.008   -8.286307   -0.778061    2.404225
  12 H     1.0000    0     1.008   -9.800486   -1.900532   -0.371940
  13 H     1.0000    0     1.008   -7.347514    3.023683   -1.313690
  14 H     1.0000    0     1.008   -7.082932    0.093194   -2.987827
  15 H     1.0000    0     1.008   -3.248760    2.460131   -0.311727
  16 H     1.0000    0     1.008   -4.457921    0.437704    2.099106
  17 H     1.0000    0     1.008   -3.867466   -2.086218   -3.035858
  18 H     1.0000    0     1.008   -3.033160   -3.141095    0.178203
  19 H     1.0000    0     1.008    0.776604   -2.613531   -2.293973
  20 H     1.0000    0     1.008   -0.275282    0.446497   -3.321880
  21 H     1.0000    0     1.008   -0.584014    0.598588    2.008214
  22 H     1.0000    0     1.008    1.564962    2.332353    0.134671
  23 H     1.0000    0     1.008    2.126405   -3.065652    2.206129
  24 H     1.0000    0     1.008    3.428628   -0.334701    3.639707
  25 H     1.0000    0     1.008    6.746413   -2.446679    1.488592
  26 H     1.0000    0     1.008    4.983253   -3.013490   -1.290207
  27 H     1.0000    0     1.008    7.644320    0.237030   -2.413422
  28 H     1.0000    0     1.008    4.999883    2.117665   -1.608372
  29 H     1.0000    0     1.008    7.203874    3.590317    2.173049
  30 H     1.0000    0     1.008    9.874437    2.854732    0.116513
  31 H     1.0000    0     1.008    8.870737    0.556133    2.334371

--------------------------------
INTERNAL COORDINATES (ANGSTROEM)
--------------------------------
 C      0   0   0     0.000000000000     0.00000000     0.00000000
 C      1   0   0     1.505219437969     0.00000000     0.00000000
 C      2   1   0     1.503770520657   113.29490582     0.00000000
 C      3   2   1     1.522683702902   109.28186314    98.49031521
 C      4   3   2     1.524089374294   108.96764527   139.70387319
 C      5   4   3     1.503730079537   112.29313650    44.81769356
 C      6   5   4     1.502410521923   113.43710422   112.75493757
 C      7   6   5     1.493930220175   114.38649397    67.13375612
 C      8   7   6     1.499970353753   114.31564899    51.75848781
 C      9   8   7     1.522612007470   112.45860552    84.42707408
 H      1   2   3     1.117855373238   110.89310883   132.14829728
 H      1   2   3     1.108332041434   112.90492232    10.18059874
 H      1   2   3     1.110732637729   112.51860195   249.85175472
 H      2   1   3     1.119884177576   107.88391384   238.64382140
 H      2   1   3     1.110606683143   106.31549007   124.30714137
 H      3   2   1     1.119634992540   107.91399500   219.28141350
 H      3   2   1     1.105407939312   109.73111452   335.05204336
 H      4   3   2     1.099061125938   112.40232121    19.13400078
 H      4   3   2     1.114827514469   106.41995598   255.22104663
 H      5   4   3     1.107322320246   108.43293437   170.75200969
 H      5   4   3     1.118476258765   104.81462139   285.49730400
 H      6   5   4     1.120609537324   106.39120367   356.66854310
 H      6   5   4     1.109063460298   111.95450244   242.81667555
 H      7   6   5     1.105629322757   107.05567590   307.41916699
 H      7   6   5     1.097151501652   108.40495771   192.20988829
 H      8   7   6     1.119198833609   107.17560631   169.50803615
 H      8   7   6     1.117687939741   112.51292570   283.67091354
 H      9   8   7     1.119841142585   106.61965456   198.96222087
 H      9   8   7     1.103422006365   113.94673221   314.86550055
 H     10   9   8     1.105034116406   112.46488410   264.26422123
 H     10   9   8     1.115187664397   111.19108000   139.57200545
 H     10   9   8     1.114600146485   105.55999607    25.96612781

---------------------------
INTERNAL COORDINATES (A.U.)
---------------------------
 C      0   0   0     0.000000000000     0.00000000     0.00000000
 C      1   0   0     2.844452509217     0.00000000     0.00000000
 C      2   1   0     2.841714452305   113.29490582     0.00000000
 C      3   2   1     2.877455187069   109.28186314    98.49031521
 C      4   3   2     2.880111521036   108.96764527   139.70387319
 C      5   4   3     2.841638029665   112.29313650    44.81769356
 C      6   5   4     2.839144427156   113.43710422   112.75493757
 C      7   6   5     2.823118979319   114.38649397    67.13375612
 C      8   7   6     2.834533177594   114.31564899    51.75848781
 C      9   8   7     2.877319702339   112.45860552    84.42707408
 H      1   2   3     2.112440512752   110.89310883   132.14829728
 H      1   2   3     2.094444023761   112.90492232    10.18059874
 H      1   2   3     2.098980493315   112.51860195   249.85175472
 H      2   1   3     2.116274397330   107.88391384   238.64382140
 H      2   1   3     2.098742473642   106.31549007   124.30714137
 H      3   2   1     2.115803505856   107.91399500   219.28141350
 H      3   2   1     2.088918271561   109.73111452   335.05204336
 H      4   3   2     2.076924532462   112.40232121    19.13400078
 H      4   3   2     2.106718688906   106.41995598   255.22104663
 H      5   4   3     2.092535927242   108.43293437   170.75200969
 H      5   4   3     2.113613816360   104.81462139   285.49730400
 H      6   5   4     2.117645128603   106.39120367   356.66854310
 H      6   5   4     2.095826205102   111.95450244   242.81667555
 H      7   6   5     2.089336625644   107.05567590   307.41916699
 H      7   6   5     2.073315865543   108.40495771   192.20988829
 H      8   7   6     2.114979284925   107.17560631   169.50803615
 H      8   7   6     2.112124109297   112.51292570   283.67091354
 H      9   8   7     2.116193072983   106.61965456   198.96222087
 H      9   8   7     2.085165402172   113.94673221   314.86550055
 H     10   9   8     2.088211848648   112.46488410   264.26422123
 H     10   9   8     2.107399273638   111.19108000   139.57200545
 H     10   9   8     2.106289025686   105.55999607    25.96612781

---------------------
BASIS SET INFORMATION
---------------------
There are 2 groups of distinct atoms

 Group   1 Type C   : 7s4p1d contracted to 3s2p1d pattern {511/31/1}
 Group   2 Type H   : 4s contracted to 2s pattern {31}

Atom   0C    basis set group =>   1
Atom   1C    basis set group =>   1
Atom   2C    basis set group =>   1
Atom   3C    basis set group =>   1
Atom   4C    basis set group =>   1
Atom   5C    basis set group =>   1
Atom   6C    basis set group =>   1
Atom   7C    basis set group =>   1
Atom   8C    basis set group =>   1
Atom   9C    basis set group =>   1
Atom  10H    basis set group =>   2
Atom  11H    basis set group =>   2
Atom  12H    basis set group =>   2
Atom  13H    basis set group =>   2
Atom  14H    basis set group =>   2
Atom  15H    basis set group =>   2
Atom  16H    basis set group =>   2
Atom  17H    basis set group =>   2
Atom  18H    basis set group =>   2
Atom  19H    basis set group =>   2
Atom  20H    basis set group =>   2
Atom  21H    basis set group =>   2
Atom  22H    basis set group =>   2
Atom  23H    basis set group =>   2
Atom  24H    basis set group =>   2
Atom  25H    basis set group =>   2
Atom  26H    basis set group =>   2
Atom  27H    basis set group =>   2
Atom  28H    basis set group =>   2
Atom  29H    basis set group =>   2
Atom  30H    basis set group =>   2
Atom  31H    basis set group =>   2
---------------------------------
AUXILIARY/J BASIS SET INFORMATION
---------------------------------
There are 2 groups of distinct atoms

 Group   1 Type C   : 12s5p4d2f1g contracted to 6s4p3d1f1g pattern {711111/2111/211/2/1}
 Group   2 Type H   : 5s2p1d contracted to 3s1p1d pattern {311/2/1}

Atom   0C    basis set group =>   1
Atom   1C    basis set group =>   1
Atom   2C    basis set group =>   1
Atom   3C    basis set group =>   1
Atom   4C    basis set group =>   1
Atom   5C    basis set group =>   1
Atom   6C    basis set group =>   1
Atom   7C    basis set group =>   1
Atom   8C    basis set group =>   1
Atom   9C    basis set group =>   1
Atom  10H    basis set group =>   2
Atom  11H    basis set group =>   2
Atom  12H    basis set group =>   2
Atom  13H    basis set group =>   2
Atom  14H    basis set group =>   2
Atom  15H    basis set group =>   2
Atom  16H    basis set group =>   2
Atom  17H    basis set group =>   2
Atom  18H    basis set group =>   2
Atom  19H    basis set group =>   2
Atom  20H    basis set group =>   2
Atom  21H    basis set group =>   2
Atom  22H    basis set group =>   2
Atom  23H    basis set group =>   2
Atom  24H    basis set group =>   2
Atom  25H    basis set group =>   2
Atom  26H    basis set group =>   2
Atom  27H    basis set group =>   2
Atom  28H    basis set group =>   2
Atom  29H    basis set group =>   2
Atom  30H    basis set group =>   2
Atom  31H    basis set group =>   2
------------------------------------------------------------------------------
                           ORCA GTO INTEGRAL CALCULATION
------------------------------------------------------------------------------

                         BASIS SET STATISTICS AND STARTUP INFO

 # of primitive gaussian shells          ...  208
 # of primitive gaussian functions       ...  328
 # of contracted shells                  ...  104
 # of contracted basis functions         ...  184
 Highest angular momentum                ...    2
 Maximum contraction depth               ...    5
 Integral package used                   ... LIBINT
 Integral threshhold            Thresh   ...  1.000e-12
 Primitive cut-off              TCut     ...  1.000e-14


------------------------------ INTEGRAL EVALUATION ----------------------------


 * One electron integrals 
 Pre-screening matrix                    ... done
 Shell pair data                         ... done (   0.001 sec)

-------------------------------------------------------------------------------
                                 ORCA SCF
-------------------------------------------------------------------------------

------------
SCF SETTINGS
------------
Hamiltonian:
 Density Functional     Method          .... DFT(GTOs)
 Exchange Functional    Exchange        .... B88
   X-Alpha parameter    XAlpha          ....  0.666667
   Becke's b parameter  XBeta           ....  0.004200
 Correlation Functional Correlation     .... LYP
 LDA part of GGA corr.  LDAOpt          .... VWN-5
 Gradients option       PostSCFGGA      .... off
 Hybrid DFT is turned on
   Fraction HF Exchange ScalHFX         ....  0.200000
   Scaling of DF-GGA-X  ScalDFX         ....  0.720000
   Scaling of DF-GGA-C  ScalDFC         ....  0.810000
   Scaling of DF-LDA-C  ScalLDAC        ....  1.000000
   Perturbative correction              ....  0.000000
   Density functional embedding theory  .... OFF
   NL short-range parameter             ....  4.800000


General Settings:
 Integral files         IntName         .... orca9
 Hartree-Fock type      HFTyp           .... UHF
 Total Charge           Charge          ....    0
 Multiplicity           Mult            ....    1
 Number of Electrons    NEL             ....   82
 Basis Dimension        Dim             ....  184
 Nuclear Repulsion      ENuc            ....    556.5250598942 Eh

Convergence Acceleration:
 DIIS                   CNVDIIS         .... on
   Start iteration      DIISMaxIt       ....    12
   Startup error        DIISStart       ....  0.200000
   # of expansion vecs  DIISMaxEq       ....     5
   Bias factor          DIISBfac        ....   1.050
   Max. coefficient     DIISMaxC        ....  10.000
 Newton-Raphson         CNVNR           .... off
 SOSCF                  CNVSOSCF        .... off
 Level Shifting         CNVShift        .... on
   Level shift para.    LevelShift      ....    0.2500
   Turn off err/grad.   ShiftErr        ....    0.0010
 Zerner damping         CNVZerner       .... off
 Static damping         CNVDamp         .... on
   Fraction old density DampFac         ....    0.7000
   Max. Damping (<1)    DampMax         ....    0.9800
   Min. Damping (>=0)   DampMin         ....    0.0000
   Turn off err/grad.   DampErr         ....    0.1000
 Fernandez-Rico         CNVRico         .... off

SCF Procedure:
 Maximum # iterations   MaxIter         ....   500
 SCF integral mode      SCFMode         .... Direct
   Integral package                     .... LIBINT
 Reset frequency        DirectResetFreq ....    20
 Integral Threshold     Thresh          ....  1.000e-12 Eh
 Primitive CutOff       TCut            ....  1.000e-14 Eh

Convergence Tolerance:
 Convergence Check Mode ConvCheckMode   .... Total+1el-Energy
 Convergence forced     ConvForced      .... 0
 Energy Change          TolE            ....  1.000e-09 Eh
 1-El. energy change                    ....  1.000e-06 Eh
 DIIS Error             TolErr          ....  1.000e-08


Diagonalization of the overlap matrix:
Smallest eigenvalue                        ... 1.403e-03
Time for diagonalization                   ...    0.004 sec
Threshold for overlap eigenvalues          ... 1.000e-08
Number of eigenvalues below threshold      ... 0
Time for construction of square roots      ...    5.979 sec
Total time needed                          ...    5.982 sec

-------------------
DFT GRID GENERATION
-------------------

General Integration Accuracy     IntAcc      ...  4.340
Radial Grid Type                 RadialGrid  ... Gauss-Chebyshev
Angular Grid (max. acc.)         AngularGrid ... Lebedev-110
Angular grid pruning method      GridPruning ... 3 (G Style)
Weight generation scheme         WeightScheme... Becke
Basis function cutoff            BFCut       ...    1.0000e-12
Integration weight cutoff        WCut        ...    1.0000e-14
Grids for H and He will be reduced by one unit

# of grid points (after initial pruning)     ...  34028 (   0.0 sec)
# of grid points (after weights+screening)   ...  30532 (   0.2 sec)
nearest neighbour list constructed           ...    0.0 sec
Grid point re-assignment to atoms done       ...    0.0 sec
Grid point division into batches done        ...    0.0 sec
Reduced shell lists constructed in    0.2 sec

Total number of grid points                  ...    30532
Total number of batches                      ...      492
Average number of points per batch           ...       62
Average number of grid points per atom       ...      954
Average number of shells per batch           ...    69.29 (66.62%)
Average number of basis functions per batch  ...   119.09 (64.72%)
Average number of large shells per batch     ...    51.77 (74.72%)
Average number of large basis fcns per batch ...    89.27 (74.95%)
Maximum spatial batch extension              ...  18.71, 19.99, 22.53 au
Average spatial batch extension              ...   3.11,  3.43,  3.54 au

Time for grid setup =    4.770 sec

------------------------------
INITIAL GUESS: MODEL POTENTIAL
------------------------------
Loading Hartree-Fock densities                     ... done
Calculating cut-offs                               ... done
Setting up the integral package                    ... done
Initializing the effective Hamiltonian             ... done
Starting the Coulomb interaction                   ... done (   0.2 sec)
Reading the grid                                   ... done
Mapping shells                                     ... done
Starting the XC term evaluation                    ... done (   0.4 sec)
  promolecular density results
     # of electrons  =     81.987258755
     EX              =    -57.990208990
     EC              =     -2.612979175
     EX+EC           =    -60.603188165
Transforming the Hamiltonian                       ... done (   0.0 sec)
Diagonalizing the Hamiltonian                      ... done (   0.0 sec)
Back transforming the eigenvectors                 ... done (   0.0 sec)
Now organizing SCF variables                       ... done
                      ------------------
                      INITIAL GUESS DONE (   5.5 sec)
                      ------------------
--------------
SCF ITERATIONS
--------------
ITER       Energy         Delta-E        Max-DP      RMS-DP      [F,P]     Damp
               ***  Starting incremental Fock matrix formation  ***
  0   -393.2573137731   0.000000000000 0.04223525  0.00143627  0.1659894 0.7000
  1   -393.4424906033  -0.185176830207 0.02588211  0.00101899  0.0851979 0.7000
                               ***Turning on DIIS***
  2   -393.5151675068  -0.072676903550 0.03527707  0.00166425  0.0305913 0.0000
  3   -393.6144664150  -0.099298908144 0.01741661  0.00069297  0.0482045 0.0000
  4   -393.6472499993  -0.032783584296 0.00347992  0.00020450  0.0100877 0.0000
  5   -393.6487620480  -0.001512048707 0.00123525  0.00007097  0.0019227 0.0000
  6   -393.6488477369  -0.000085688948 0.00060076  0.00003569  0.0006494 0.0000
  7   -393.6488547587  -0.000007021789 0.00017444  0.00000430  0.0003068 0.0000
  8   -393.6488554329  -0.000000674235 0.00003820  0.00000114  0.0000556 0.0000
  9   -393.6488554550  -0.000000022094 0.00001391  0.00000043  0.0000257 0.0000
 10   -393.6488554598  -0.000000004746 0.00000418  0.00000014  0.0000092 0.0000
 11   -393.6488554603  -0.000000000517 0.00000086  0.00000005  0.0000020 0.0000
 12   -393.6488554603  -0.000000000014 0.00000033  0.00000001  0.0000006 0.0000
 13   -393.6488554603  -0.000000000024 0.00000014  0.00000000  0.0000002 0.0000
 14   -393.6488554604  -0.000000000020 0.00000004  0.00000000  0.0000001 0.0000
                 **** Energy Check signals convergence ****

 Fermi smearing  (ALPHA): E(HOMO(Eh)) = -0.289956 MUE = -0.120753 gap=   9.209 eV
 Fermi smearing   (BETA): E(HOMO(Eh)) = -0.289956 MUE = -0.120753 gap=   9.209 eV

N_FOD(alpha) =  0.000000
 N_FOD(beta) =  0.000000
       N_FOD =  0.000000

               *****************************************************
               *                     SUCCESS                       *
               *           SCF CONVERGED AFTER  15 CYCLES          *
               *****************************************************

Setting up the final grid:

General Integration Accuracy     IntAcc      ...  4.670
Radial Grid Type                 RadialGrid  ... Gauss-Chebyshev
Angular Grid (max. acc.)         AngularGrid ... Lebedev-302
Angular grid pruning method      GridPruning ... 3 (G Style)
Weight generation scheme         WeightScheme... Becke
Basis function cutoff            BFCut       ...    1.0000e-12
Integration weight cutoff        WCut        ...    1.0000e-14
Grids for H and He will be reduced by one unit

# of grid points (after initial pruning)     ... 136788 (   0.1 sec)
# of grid points (after weights+screening)   ... 120290 (   0.7 sec)
nearest neighbour list constructed           ...    0.0 sec
Grid point re-assignment to atoms done       ...    0.0 sec
Grid point division into batches done        ...    0.3 sec
Reduced shell lists constructed in    1.0 sec

Total number of grid points                  ...   120290
Total number of batches                      ...     1896
Average number of points per batch           ...       63
Average number of grid points per atom       ...     3759
Average number of shells per batch           ...    64.56 (62.07%)
Average number of basis functions per batch  ...   110.36 (59.98%)
Average number of large shells per batch     ...    47.45 (73.50%)
Average number of large basis fcns per batch ...    81.28 (73.65%)
Maximum spatial batch extension              ...  17.92, 21.31, 21.36 au
Average spatial batch extension              ...   2.11,  2.24,  2.29 au

Final grid set up in    2.8 sec
Final integration                            ... done (   7.9 sec)
Change in XC energy                          ...    -0.000215364
Integrated number of electrons               ...    82.000185325
Previous integrated no of electrons          ...    81.998251365

----------------
TOTAL SCF ENERGY
----------------

Total Energy       :         -393.64907082 Eh          -10711.73579 eV

Components:
Nuclear Repulsion  :          556.52505989 Eh           15143.81678 eV
Electronic Energy  :         -950.17413072 Eh          -25855.55257 eV
One Electron Energy:        -1631.98407020 Eh          -44408.54424 eV
Two Electron Energy:          681.80993949 Eh           18552.99167 eV

Virial components:
Potential Energy   :         -783.39430217 Eh          -21317.24271 eV
Kinetic Energy     :          389.74523135 Eh           10605.50692 eV
Virial Ratio       :            2.01001639


DFT components:
N(Alpha)           :       41.000092662605 electrons
N(Beta)            :       41.000092662605 electrons
N(Total)           :       82.000185325210 electrons
E(X)               :      -47.197762979302 Eh       
E(C)               :       -3.092380654344 Eh       
E(XC)              :      -50.290143633645 Eh       
DFET-embed. en.    :        0.000000000000 Eh       

---------------
SCF CONVERGENCE
---------------

  Last Energy change         ...   -2.7285e-11  Tolerance :   1.0000e-09
  Last MAX-Density change    ...    4.3860e-09  Tolerance :   1.0000e-08
  Last RMS-Density change    ...    1.9178e-10  Tolerance :   1.0000e-09
  Last DIIS Error            ...    7.0857e-09  Tolerance :   1.0000e-08

             **** THE GBW FILE WAS UPDATED (orca9.gbw) ****
             **** DENSITY FILE WAS UPDATED (orca9.scfp) ****
             **** ENERGY FILE WAS UPDATED (orca9.en.tmp) ****
             **** THE GBW FILE WAS UPDATED (orca9.gbw) ****
             **** DENSITY FILE WAS UPDATED (orca9.scfp) ****
----------------
ORBITAL ENERGIES
----------------
                 SPIN UP ORBITALS
  NO   OCC          E(Eh)            E(eV) 
   0   1.0000     -10.165905      -276.6283 
   1   1.0000     -10.165450      -276.6159 
   2   1.0000     -10.165322      -276.6125 
   3   1.0000     -10.165226      -276.6098 
   4   1.0000     -10.164806      -276.5984 
   5   1.0000     -10.164030      -276.5773 
   6   1.0000     -10.163723      -276.5690 
   7   1.0000     -10.162643      -276.5396 
   8   1.0000     -10.161963      -276.5211 
   9   1.0000     -10.161156      -276.4991 
  10   1.0000      -0.816430       -22.2162 
  11   1.0000      -0.793892       -21.6029 
  12   1.0000      -0.760003       -20.6807 
  13   1.0000      -0.721986       -19.6462 
  14   1.0000      -0.674163       -18.3449 
  15   1.0000      -0.644299       -17.5323 
  16   1.0000      -0.607370       -16.5274 
  17   1.0000      -0.579965       -15.7816 
  18   1.0000      -0.557893       -15.1811 
  19   1.0000      -0.521632       -14.1943 
  20   1.0000      -0.481767       -13.1095 
  21   1.0000      -0.470713       -12.8087 
  22   1.0000      -0.453776       -12.3479 
  23   1.0000      -0.445833       -12.1317 
  24   1.0000      -0.432298       -11.7634 
  25   1.0000      -0.417648       -11.3648 
  26   1.0000      -0.403435       -10.9780 
  27   1.0000      -0.399394       -10.8681 
  28   1.0000      -0.383178       -10.4268 
  29   1.0000      -0.376839       -10.2543 
  30   1.0000      -0.366683        -9.9779 
  31   1.0000      -0.359804        -9.7908 
  32   1.0000      -0.340496        -9.2654 
  33   1.0000      -0.338364        -9.2074 
  34   1.0000      -0.333041        -9.0625 
  35   1.0000      -0.320448        -8.7198 
  36   1.0000      -0.314272        -8.5518 
  37   1.0000      -0.306871        -8.3504 
  38   1.0000      -0.301850        -8.2137 
  39   1.0000      -0.292633        -7.9629 
  40   1.0000      -0.289956        -7.8901 
  41   0.0000       0.048451         1.3184 
  42   0.0000       0.059973         1.6319 
  43   0.0000       0.067552         1.8382 
  44   0.0000       0.069012         1.8779 
  45   0.0000       0.078176         2.1273 
  46   0.0000       0.084394         2.2965 
  47   0.0000       0.094319         2.5666 
  48   0.0000       0.110539         3.0079 
  49   0.0000       0.111783         3.0418 
  50   0.0000       0.119633         3.2554 
  51   0.0000       0.126829         3.4512 
  52   0.0000       0.136870         3.7244 
  53   0.0000       0.145798         3.9674 
  54   0.0000       0.147772         4.0211 
  55   0.0000       0.160125         4.3572 
  56   0.0000       0.162574         4.4239 
  57   0.0000       0.178385         4.8541 
  58   0.0000       0.181385         4.9358 
  59   0.0000       0.187219         5.0945 
  60   0.0000       0.202246         5.5034 
  61   0.0000       0.213466         5.8087 
  62   0.0000       0.217567         5.9203 
  63   0.0000       0.227663         6.1950 
  64   0.0000       0.235952         6.4206 
  65   0.0000       0.248797         6.7701 
  66   0.0000       0.261959         7.1283 
  67   0.0000       0.269327         7.3288 
  68   0.0000       0.271099         7.3770 
  69   0.0000       0.296938         8.0801 
  70   0.0000       0.302681         8.2364 
  71   0.0000       0.328152         8.9295 
  72   0.0000       0.395979        10.7751 
  73   0.0000       0.417395        11.3579 
  74   0.0000       0.431127        11.7316 
  75   0.0000       0.441482        12.0133 
  76   0.0000       0.451370        12.2824 
  77   0.0000       0.464314        12.6346 
  78   0.0000       0.469714        12.7816 
  79   0.0000       0.483361        13.1529 
  80   0.0000       0.491012        13.3611 
  81   0.0000       0.513436        13.9713 
  82   0.0000       0.523893        14.2559 
  83   0.0000       0.536703        14.6044 
  84   0.0000       0.566771        15.4226 
  85   0.0000       0.601699        16.3731 
  86   0.0000       0.609818        16.5940 
  87   0.0000       0.624711        16.9993 
  88   0.0000       0.636031        17.3073 
  89   0.0000       0.641094        17.4450 
  90   0.0000       0.643207        17.5026 
  91   0.0000       0.650799        17.7091 
  92   0.0000       0.654253        17.8031 
  93   0.0000       0.661533        18.0012 
  94   0.0000       0.669910        18.2292 
  95   0.0000       0.674041        18.3416 
  96   0.0000       0.678526        18.4636 
  97   0.0000       0.680344        18.5131 
  98   0.0000       0.691669        18.8213 
  99   0.0000       0.696445        18.9512 
 100   0.0000       0.699845        19.0437 
 101   0.0000       0.702519        19.1165 
 102   0.0000       0.706162        19.2156 
 103   0.0000       0.707814        19.2606 
 104   0.0000       0.713835        19.4244 
 105   0.0000       0.716815        19.5055 
 106   0.0000       0.721908        19.6441 
 107   0.0000       0.725794        19.7499 
 108   0.0000       0.729022        19.8377 
 109   0.0000       0.734508        19.9870 
 110   0.0000       0.736630        20.0447 
 111   0.0000       0.742519        20.2050 
 112   0.0000       0.751328        20.4447 
 113   0.0000       0.755823        20.5670 
 114   0.0000       0.768061        20.9000 
 115   0.0000       0.774362        21.0714 
 116   0.0000       0.775874        21.1126 
 117   0.0000       0.796514        21.6742 
 118   0.0000       0.804567        21.8934 
 119   0.0000       0.806210        21.9381 
 120   0.0000       0.819727        22.3059 
 121   0.0000       0.845333        23.0027 
 122   0.0000       0.890105        24.2210 
 123   0.0000       0.904564        24.6144 
 124   0.0000       0.925386        25.1810 
 125   0.0000       0.964717        26.2513 
 126   0.0000       0.994514        27.0621 
 127   0.0000       1.049822        28.5671 
 128   0.0000       1.088553        29.6210 
 129   0.0000       1.129214        30.7275 
 130   0.0000       1.148687        31.2574 
 131   0.0000       1.157628        31.5007 
 132   0.0000       1.212717        32.9997 
 133   0.0000       1.256070        34.1794 
 134   0.0000       1.375090        37.4181 
 135   0.0000       1.413879        38.4736 
 136   0.0000       1.512102        41.1464 
 137   0.0000       1.550231        42.1839 
 138   0.0000       1.604936        43.6725 
 139   0.0000       1.650422        44.9103 
 140   0.0000       1.705319        46.4041 
 141   0.0000       1.721598        46.8471 
 142   0.0000       1.752122        47.6777 
 143   0.0000       1.805739        49.1366 
 144   0.0000       1.817003        49.4432 
 145   0.0000       1.857020        50.5321 
 146   0.0000       1.872473        50.9526 
 147   0.0000       1.884287        51.2741 
 148   0.0000       1.905078        51.8398 
 149   0.0000       1.910844        51.9967 
 150   0.0000       1.931175        52.5499 
 151   0.0000       1.936936        52.7067 
 152   0.0000       1.962972        53.4152 
 153   0.0000       1.986834        54.0645 
 154   0.0000       1.997540        54.3558 
 155   0.0000       2.020724        54.9867 
 156   0.0000       2.035390        55.3858 
 157   0.0000       2.052736        55.8578 
 158   0.0000       2.065994        56.2186 
 159   0.0000       2.103892        57.2498 
 160   0.0000       2.141799        58.2813 
 161   0.0000       2.162020        58.8316 
 162   0.0000       2.189496        59.5792 
 163   0.0000       2.213400        60.2297 
 164   0.0000       2.227813        60.6219 
 165   0.0000       2.232999        60.7630 
 166   0.0000       2.274634        61.8960 
 167   0.0000       2.290883        62.3381 
 168   0.0000       2.310409        62.8694 
 169   0.0000       2.363395        64.3112 
 170   0.0000       2.391076        65.0645 
 171   0.0000       2.402734        65.3817 
 172   0.0000       2.432025        66.1788 
 173   0.0000       2.448166        66.6180 
 174   0.0000       2.484817        67.6153 
 175   0.0000       2.526724        68.7557 
 176   0.0000       2.533990        68.9534 
 177   0.0000       2.620209        71.2995 
 178   0.0000       2.638133        71.7872 
 179   0.0000       2.674610        72.7798 
 180   0.0000       2.699552        73.4586 
 181   0.0000       2.714461        73.8642 
 182   0.0000       2.761181        75.1356 
 183   0.0000       2.802347        76.2558 

                 SPIN DOWN ORBITALS
  NO   OCC          E(Eh)            E(eV) 
   0   1.0000     -10.165905      -276.6283 
   1   1.0000     -10.165450      -276.6159 
   2   1.0000     -10.165322      -276.6125 
   3   1.0000     -10.165226      -276.6098 
   4   1.0000     -10.164806      -276.5984 
   5   1.0000     -10.164030      -276.5773 
   6   1.0000     -10.163723      -276.5690 
   7   1.0000     -10.162643      -276.5396 
   8   1.0000     -10.161963      -276.5211 
   9   1.0000     -10.161156      -276.4991 
  10   1.0000      -0.816430       -22.2162 
  11   1.0000      -0.793892       -21.6029 
  12   1.0000      -0.760003       -20.6807 
  13   1.0000      -0.721986       -19.6462 
  14   1.0000      -0.674163       -18.3449 
  15   1.0000      -0.644299       -17.5323 
  16   1.0000      -0.607370       -16.5274 
  17   1.0000      -0.579965       -15.7816 
  18   1.0000      -0.557893       -15.1811 
  19   1.0000      -0.521632       -14.1943 
  20   1.0000      -0.481767       -13.1095 
  21   1.0000      -0.470713       -12.8087 
  22   1.0000      -0.453776       -12.3479 
  23   1.0000      -0.445833       -12.1317 
  24   1.0000      -0.432298       -11.7634 
  25   1.0000      -0.417648       -11.3648 
  26   1.0000      -0.403435       -10.9780 
  27   1.0000      -0.399394       -10.8681 
  28   1.0000      -0.383178       -10.4268 
  29   1.0000      -0.376839       -10.2543 
  30   1.0000      -0.366683        -9.9779 
  31   1.0000      -0.359804        -9.7908 
  32   1.0000      -0.340496        -9.2654 
  33   1.0000      -0.338364        -9.2074 
  34   1.0000      -0.333041        -9.0625 
  35   1.0000      -0.320448        -8.7198 
  36   1.0000      -0.314272        -8.5518 
  37   1.0000      -0.306871        -8.3504 
  38   1.0000      -0.301850        -8.2137 
  39   1.0000      -0.292633        -7.9629 
  40   1.0000      -0.289956        -7.8901 
  41   0.0000       0.048451         1.3184 
  42   0.0000       0.059973         1.6319 
  43   0.0000       0.067552         1.8382 
  44   0.0000       0.069012         1.8779 
  45   0.0000       0.078176         2.1273 
  46   0.0000       0.084394         2.2965 
  47   0.0000       0.094319         2.5666 
  48   0.0000       0.110539         3.0079 
  49   0.0000       0.111783         3.0418 
  50   0.0000       0.119633         3.2554 
  51   0.0000       0.126829         3.4512 
  52   0.0000       0.136870         3.7244 
  53   0.0000       0.145798         3.9674 
  54   0.0000       0.147772         4.0211 
  55   0.0000       0.160125         4.3572 
  56   0.0000       0.162574         4.4239 
  57   0.0000       0.178385         4.8541 
  58   0.0000       0.181385         4.9358 
  59   0.0000       0.187219         5.0945 
  60   0.0000       0.202246         5.5034 
  61   0.0000       0.213466         5.8087 
  62   0.0000       0.217567         5.9203 
  63   0.0000       0.227663         6.1950 
  64   0.0000       0.235952         6.4206 
  65   0.0000       0.248797         6.7701 
  66   0.0000       0.261959         7.1283 
  67   0.0000       0.269327         7.3288 
  68   0.0000       0.271099         7.3770 
  69   0.0000       0.296938         8.0801 
  70   0.0000       0.302681         8.2364 
  71   0.0000       0.328152         8.9295 
  72   0.0000       0.395979        10.7751 
  73   0.0000       0.417395        11.3579 
  74   0.0000       0.431127        11.7316 
  75   0.0000       0.441482        12.0133 
  76   0.0000       0.451370        12.2824 
  77   0.0000       0.464314        12.6346 
  78   0.0000       0.469714        12.7816 
  79   0.0000       0.483361        13.1529 
  80   0.0000       0.491012        13.3611 
  81   0.0000       0.513436        13.9713 
  82   0.0000       0.523893        14.2559 
  83   0.0000       0.536703        14.6044 
  84   0.0000       0.566771        15.4226 
  85   0.0000       0.601699        16.3731 
  86   0.0000       0.609818        16.5940 
  87   0.0000       0.624711        16.9993 
  88   0.0000       0.636031        17.3073 
  89   0.0000       0.641094        17.4450 
  90   0.0000       0.643207        17.5026 
  91   0.0000       0.650799        17.7091 
  92   0.0000       0.654253        17.8031 
  93   0.0000       0.661533        18.0012 
  94   0.0000       0.669910        18.2292 
  95   0.0000       0.674041        18.3416 
  96   0.0000       0.678526        18.4636 
  97   0.0000       0.680344        18.5131 
  98   0.0000       0.691669        18.8213 
  99   0.0000       0.696445        18.9512 
 100   0.0000       0.699845        19.0437 
 101   0.0000       0.702519        19.1165 
 102   0.0000       0.706162        19.2156 
 103   0.0000       0.707814        19.2606 
 104   0.0000       0.713835        19.4244 
 105   0.0000       0.716815        19.5055 
 106   0.0000       0.721908        19.6441 
 107   0.0000       0.725794        19.7499 
 108   0.0000       0.729022        19.8377 
 109   0.0000       0.734508        19.9870 
 110   0.0000       0.736630        20.0447 
 111   0.0000       0.742519        20.2050 
 112   0.0000       0.751328        20.4447 
 113   0.0000       0.755823        20.5670 
 114   0.0000       0.768061        20.9000 
 115   0.0000       0.774362        21.0714 
 116   0.0000       0.775874        21.1126 
 117   0.0000       0.796514        21.6742 
 118   0.0000       0.804567        21.8934 
 119   0.0000       0.806210        21.9381 
 120   0.0000       0.819727        22.3059 
 121   0.0000       0.845333        23.0027 
 122   0.0000       0.890105        24.2210 
 123   0.0000       0.904564        24.6144 
 124   0.0000       0.925386        25.1810 
 125   0.0000       0.964717        26.2513 
 126   0.0000       0.994514        27.0621 
 127   0.0000       1.049822        28.5671 
 128   0.0000       1.088553        29.6210 
 129   0.0000       1.129214        30.7275 
 130   0.0000       1.148687        31.2574 
 131   0.0000       1.157628        31.5007 
 132   0.0000       1.212717        32.9997 
 133   0.0000       1.256070        34.1794 
 134   0.0000       1.375090        37.4181 
 135   0.0000       1.413879        38.4736 
 136   0.0000       1.512102        41.1464 
 137   0.0000       1.550231        42.1839 
 138   0.0000       1.604936        43.6725 
 139   0.0000       1.650422        44.9103 
 140   0.0000       1.705319        46.4041 
 141   0.0000       1.721598        46.8471 
 142   0.0000       1.752122        47.6777 
 143   0.0000       1.805739        49.1366 
 144   0.0000       1.817003        49.4432 
 145   0.0000       1.857020        50.5321 
 146   0.0000       1.872473        50.9526 
 147   0.0000       1.884287        51.2741 
 148   0.0000       1.905078        51.8398 
 149   0.0000       1.910844        51.9967 
 150   0.0000       1.931175        52.5499 
 151   0.0000       1.936936        52.7067 
 152   0.0000       1.962972        53.4152 
 153   0.0000       1.986834        54.0645 
 154   0.0000       1.997540        54.3558 
 155   0.0000       2.020724        54.9867 
 156   0.0000       2.035390        55.3858 
 157   0.0000       2.052736        55.8578 
 158   0.0000       2.065994        56.2186 
 159   0.0000       2.103892        57.2498 
 160   0.0000       2.141799        58.2813 
 161   0.0000       2.162020        58.8316 
 162   0.0000       2.189496        59.5792 
 163   0.0000       2.213400        60.2297 
 164   0.0000       2.227813        60.6219 
 165   0.0000       2.232999        60.7630 
 166   0.0000       2.274634        61.8960 
 167   0.0000       2.290883        62.3381 
 168   0.0000       2.310409        62.8694 
 169   0.0000       2.363395        64.3112 
 170   0.0000       2.391076        65.0645 
 171   0.0000       2.402734        65.3817 
 172   0.0000       2.432025        66.1788 
 173   0.0000       2.448166        66.6180 
 174   0.0000       2.484817        67.6153 
 175   0.0000       2.526724        68.7557 
 176   0.0000       2.533990        68.9534 
 177   0.0000       2.620209        71.2995 
 178   0.0000       2.638133        71.7872 
 179   0.0000       2.674610        72.7798 
 180   0.0000       2.699552        73.4586 
 181   0.0000       2.714461        73.8642 
 182   0.0000       2.761181        75.1356 
 183   0.0000       2.802347        76.2558 

                    ********************************
                    * MULLIKEN POPULATION ANALYSIS *
                    ********************************

------------------------------------------
FOD BASED MULLIKEN REDUCED ORBITAL CHARGES
------------------------------------------
  0 C s       :    -0.000000  s :    -0.000000
      pz      :     0.000000  p :     0.000000
      px      :     0.000000
      py      :     0.000000
      dz2     :     0.000000  d :     0.000000
      dxz     :     0.000000
      dyz     :     0.000000
      dx2y2   :     0.000000
      dxy     :     0.000000
  1 C s       :    -0.000000  s :    -0.000000
      pz      :     0.000000  p :     0.000000
      px      :     0.000000
      py      :     0.000000
      dz2     :     0.000000  d :     0.000000
      dxz     :     0.000000
      dyz     :     0.000000
      dx2y2   :     0.000000
      dxy     :     0.000000
  2 C s       :    -0.000000  s :    -0.000000
      pz      :     0.000000  p :     0.000000
      px      :     0.000000
      py      :     0.000000
      dz2     :     0.000000  d :     0.000000
      dxz     :     0.000000
      dyz     :     0.000000
      dx2y2   :     0.000000
      dxy     :     0.000000
  3 C s       :    -0.000000  s :    -0.000000
      pz      :     0.000000  p :     0.000000
      px      :     0.000000
      py      :     0.000000
      dz2     :     0.000000  d :     0.000000
      dxz     :     0.000000
      dyz     :     0.000000
      dx2y2   :     0.000000
      dxy     :     0.000000
  4 C s       :    -0.000000  s :    -0.000000
      pz      :     0.000000  p :     0.000000
      px      :     0.000000
      py      :     0.000000
      dz2     :     0.000000  d :     0.000000
      dxz     :     0.000000
      dyz     :     0.000000
      dx2y2   :     0.000000
      dxy     :     0.000000
  5 C s       :    -0.000000  s :    -0.000000
      pz      :     0.000000  p :     0.000000
      px      :     0.000000
      py      :     0.000000
      dz2     :     0.000000  d :     0.000000
      dxz     :     0.000000
      dyz     :     0.000000
      dx2y2   :     0.000000
      dxy     :     0.000000
  6 C s       :    -0.000000  s :    -0.000000
      pz      :     0.000000  p :     0.000000
      px      :     0.000000
      py      :     0.000000
      dz2     :     0.000000  d :     0.000000
      dxz     :     0.000000
      dyz     :     0.000000
      dx2y2   :     0.000000
      dxy     :     0.000000
  7 C s       :    -0.000000  s :    -0.000000
      pz      :     0.000000  p :     0.000000
      px      :     0.000000
      py      :     0.000000
      dz2     :     0.000000  d :     0.000000
      dxz     :     0.000000
      dyz     :     0.000000
      dx2y2   :     0.000000
      dxy     :     0.000000
  8 C s       :    -0.000000  s :    -0.000000
      pz      :     0.000000  p :     0.000000
      px      :     0.000000
      py      :     0.000000
      dz2     :     0.000000  d :     0.000000
      dxz     :     0.000000
      dyz     :     0.000000
      dx2y2   :     0.000000
      dxy     :     0.000000
  9 C s       :    -0.000000  s :    -0.000000
      pz      :     0.000000  p :     0.000000
      px      :     0.000000
      py      :     0.000000
      dz2     :     0.000000  d :     0.000000
      dxz     :     0.000000
      dyz     :     0.000000
      dx2y2   :     0.000000
      dxy     :     0.000000
 10 H s       :     0.000000  s :     0.000000
 11 H s       :     0.000000  s :     0.000000
 12 H s       :     0.000000  s :     0.000000
 13 H s       :     0.000000  s :     0.000000
 14 H s       :     0.000000  s :     0.000000
 15 H s       :     0.000000  s :     0.000000
 16 H s       :     0.000000  s :     0.000000
 17 H s       :     0.000000  s :     0.000000
 18 H s       :     0.000000  s :     0.000000
 19 H s       :     0.000000  s :     0.000000
 20 H s       :     0.000000  s :     0.000000
 21 H s       :     0.000000  s :     0.000000
 22 H s       :     0.000000  s :     0.000000
 23 H s       :     0.000000  s :     0.000000
 24 H s       :     0.000000  s :     0.000000
 25 H s       :     0.000000  s :     0.000000
 26 H s       :     0.000000  s :     0.000000
 27 H s       :     0.000000  s :     0.000000
 28 H s       :     0.000000  s :     0.000000
 29 H s       :     0.000000  s :     0.000000
 30 H s       :     0.000000  s :     0.000000
 31 H s       :     0.000000  s :     0.000000


                     *******************************
                     * LOEWDIN POPULATION ANALYSIS *
                     *******************************

-------------------------------------------
LOEWDIN ATOMIC CHARGES AND SPIN POPULATIONS
-------------------------------------------
   0 C :   -0.320540    0.000000
   1 C :   -0.219882    0.000000
   2 C :   -0.221191    0.000000
   3 C :   -0.206855    0.000000
   4 C :   -0.211529    0.000000
   5 C :   -0.221507    0.000000
   6 C :   -0.209173    0.000000
   7 C :   -0.213800    0.000000
   8 C :   -0.225094    0.000000
   9 C :   -0.317738    0.000000
  10 H :    0.110430    0.000000
  11 H :    0.106351    0.000000
  12 H :    0.108054    0.000000
  13 H :    0.104172    0.000000
  14 H :    0.107272    0.000000
  15 H :    0.108479    0.000000
  16 H :    0.110949    0.000000
  17 H :    0.108043    0.000000
  18 H :    0.106260    0.000000
  19 H :    0.104470    0.000000
  20 H :    0.103037    0.000000
  21 H :    0.115105    0.000000
  22 H :    0.106594    0.000000
  23 H :    0.106843    0.000000
  24 H :    0.106518    0.000000
  25 H :    0.104763    0.000000
  26 H :    0.104544    0.000000
  27 H :    0.107001    0.000000
  28 H :    0.109245    0.000000
  29 H :    0.109718    0.000000
  30 H :    0.110886    0.000000
  31 H :    0.108573    0.000000

----------------------------------------------------
LOEWDIN REDUCED ORBITAL CHARGES AND SPIN POPULATIONS
----------------------------------------------------
CHARGE
  0 C s       :     2.952022  s :     2.952022
      pz      :     1.098006  p :     3.293351
      px      :     1.086937
      py      :     1.108408
      dz2     :     0.017759  d :     0.075167
      dxz     :     0.014030
      dyz     :     0.012197
      dx2y2   :     0.008867
      dxy     :     0.022314
  1 C s       :     2.902393  s :     2.902393
      pz      :     1.081423  p :     3.223335
      px      :     1.057232
      py      :     1.084680
      dz2     :     0.021679  d :     0.094154
      dxz     :     0.019976
      dyz     :     0.011976
      dx2y2   :     0.025482
      dxy     :     0.015041
  2 C s       :     2.910342  s :     2.910342
      pz      :     1.079135  p :     3.218084
      px      :     1.063545
      py      :     1.075404
      dz2     :     0.027832  d :     0.092765
      dxz     :     0.013565
      dyz     :     0.008784
      dx2y2   :     0.018913
      dxy     :     0.023671
  3 C s       :     2.911409  s :     2.911409
      pz      :     1.075317  p :     3.203194
      px      :     1.055383
      py      :     1.072494
      dz2     :     0.014496  d :     0.092253
      dxz     :     0.016614
      dyz     :     0.024384
      dx2y2   :     0.021190
      dxy     :     0.015569
  4 C s       :     2.906277  s :     2.906277
      pz      :     1.071899  p :     3.211463
      px      :     1.056779
      py      :     1.082784
      dz2     :     0.017486  d :     0.093788
      dxz     :     0.014962
      dyz     :     0.025116
      dx2y2   :     0.016989
      dxy     :     0.019235
  5 C s       :     2.899877  s :     2.899877
      pz      :     1.076324  p :     3.226308
      px      :     1.067170
      py      :     1.082814
      dz2     :     0.015890  d :     0.095322
      dxz     :     0.028614
      dyz     :     0.015739
      dx2y2   :     0.018799
      dxy     :     0.016281
  6 C s       :     2.892799  s :     2.892799
      pz      :     1.079245  p :     3.216981
      px      :     1.059568
      py      :     1.078168
      dz2     :     0.019775  d :     0.099393
      dxz     :     0.022369
      dyz     :     0.015838
      dx2y2   :     0.019209
      dxy     :     0.022202
  7 C s       :     2.900596  s :     2.900596
      pz      :     1.079368  p :     3.215874
      px      :     1.070635
      py      :     1.065871
      dz2     :     0.008653  d :     0.097329
      dxz     :     0.024302
      dyz     :     0.026791
      dx2y2   :     0.018530
      dxy     :     0.019054
  8 C s       :     2.903390  s :     2.903390
      pz      :     1.079187  p :     3.228569
      px      :     1.073297
      py      :     1.076086
      dz2     :     0.011464  d :     0.093134
      dxz     :     0.025835
      dyz     :     0.019614
      dx2y2   :     0.011350
      dxy     :     0.024872
  9 C s       :     2.956406  s :     2.956406
      pz      :     1.098002  p :     3.287756
      px      :     1.088165
      py      :     1.101589
      dz2     :     0.005391  d :     0.073576
      dxz     :     0.018661
      dyz     :     0.023088
      dx2y2   :     0.009097
      dxy     :     0.017339
 10 H s       :     0.889570  s :     0.889570
 11 H s       :     0.893649  s :     0.893649
 12 H s       :     0.891946  s :     0.891946
 13 H s       :     0.895828  s :     0.895828
 14 H s       :     0.892728  s :     0.892728
 15 H s       :     0.891521  s :     0.891521
 16 H s       :     0.889051  s :     0.889051
 17 H s       :     0.891957  s :     0.891957
 18 H s       :     0.893740  s :     0.893740
 19 H s       :     0.895530  s :     0.895530
 20 H s       :     0.896963  s :     0.896963
 21 H s       :     0.884895  s :     0.884895
 22 H s       :     0.893406  s :     0.893406
 23 H s       :     0.893157  s :     0.893157
 24 H s       :     0.893482  s :     0.893482
 25 H s       :     0.895237  s :     0.895237
 26 H s       :     0.895456  s :     0.895456
 27 H s       :     0.892999  s :     0.892999
 28 H s       :     0.890755  s :     0.890755
 29 H s       :     0.890282  s :     0.890282
 30 H s       :     0.889114  s :     0.889114
 31 H s       :     0.891427  s :     0.891427

SPIN
  0 C s       :     0.000000  s :     0.000000
      pz      :     0.000000  p :     0.000000
      px      :     0.000000
      py      :     0.000000
      dz2     :     0.000000  d :     0.000000
      dxz     :     0.000000
      dyz     :     0.000000
      dx2y2   :     0.000000
      dxy     :     0.000000
  1 C s       :     0.000000  s :     0.000000
      pz      :     0.000000  p :     0.000000
      px      :     0.000000
      py      :     0.000000
      dz2     :     0.000000  d :     0.000000
      dxz     :     0.000000
      dyz     :     0.000000
      dx2y2   :     0.000000
      dxy     :     0.000000
  2 C s       :     0.000000  s :     0.000000
      pz      :     0.000000  p :     0.000000
      px      :     0.000000
      py      :     0.000000
      dz2     :     0.000000  d :     0.000000
      dxz     :     0.000000
      dyz     :     0.000000
      dx2y2   :     0.000000
      dxy     :     0.000000
  3 C s       :     0.000000  s :     0.000000
      pz      :     0.000000  p :     0.000000
      px      :     0.000000
      py      :     0.000000
      dz2     :     0.000000  d :     0.000000
      dxz     :     0.000000
      dyz     :     0.000000
      dx2y2   :     0.000000
      dxy     :     0.000000
  4 C s       :     0.000000  s :     0.000000
      pz      :     0.000000  p :     0.000000
      px      :     0.000000
      py      :     0.000000
      dz2     :     0.000000  d :     0.000000
      dxz     :     0.000000
      dyz     :     0.000000
      dx2y2   :     0.000000
      dxy     :     0.000000
  5 C s       :     0.000000  s :     0.000000
      pz      :     0.000000  p :     0.000000
      px      :     0.000000
      py      :     0.000000
      dz2     :     0.000000  d :     0.000000
      dxz     :     0.000000
      dyz     :     0.000000
      dx2y2   :     0.000000
      dxy     :     0.000000
  6 C s       :     0.000000  s :     0.000000
      pz      :     0.000000  p :     0.000000
      px      :     0.000000
      py      :     0.000000
      dz2     :     0.000000  d :     0.000000
      dxz     :     0.000000
      dyz     :     0.000000
      dx2y2   :     0.000000
      dxy     :     0.000000
  7 C s       :     0.000000  s :     0.000000
      pz      :     0.000000  p :     0.000000
      px      :     0.000000
      py      :     0.000000
      dz2     :     0.000000  d :     0.000000
      dxz     :     0.000000
      dyz     :     0.000000
      dx2y2   :     0.000000
      dxy     :     0.000000
  8 C s       :     0.000000  s :     0.000000
      pz      :     0.000000  p :     0.000000
      px      :     0.000000
      py      :     0.000000
      dz2     :     0.000000  d :     0.000000
      dxz     :     0.000000
      dyz     :     0.000000
      dx2y2   :     0.000000
      dxy     :     0.000000
  9 C s       :     0.000000  s :     0.000000
      pz      :     0.000000  p :     0.000000
      px      :     0.000000
      py      :     0.000000
      dz2     :     0.000000  d :     0.000000
      dxz     :     0.000000
      dyz     :     0.000000
      dx2y2   :     0.000000
      dxy     :     0.000000
 10 H s       :     0.000000  s :     0.000000
 11 H s       :     0.000000  s :     0.000000
 12 H s       :     0.000000  s :     0.000000
 13 H s       :     0.000000  s :     0.000000
 14 H s       :     0.000000  s :     0.000000
 15 H s       :     0.000000  s :     0.000000
 16 H s       :     0.000000  s :     0.000000
 17 H s       :     0.000000  s :     0.000000
 18 H s       :     0.000000  s :     0.000000
 19 H s       :     0.000000  s :     0.000000
 20 H s       :     0.000000  s :     0.000000
 21 H s       :     0.000000  s :     0.000000
 22 H s       :     0.000000  s :     0.000000
 23 H s       :     0.000000  s :     0.000000
 24 H s       :     0.000000  s :     0.000000
 25 H s       :     0.000000  s :     0.000000
 26 H s       :     0.000000  s :     0.000000
 27 H s       :     0.000000  s :     0.000000
 28 H s       :     0.000000  s :     0.000000
 29 H s       :     0.000000  s :     0.000000
 30 H s       :     0.000000  s :     0.000000
 31 H s       :     0.000000  s :     0.000000


                      *****************************
                      * MAYER POPULATION ANALYSIS *
                      *****************************

  NA   - Mulliken gross atomic population
  ZA   - Total nuclear charge
  QA   - Mulliken gross atomic charge
  VA   - Mayer's total valence
  BVA  - Mayer's bonded valence
  FA   - Mayer's free valence

  ATOM       NA         ZA         QA         VA         BVA        FA
  0 C      6.2714     6.0000    -0.2714     4.0158     4.0158     0.0000
  1 C      6.1252     6.0000    -0.1252     4.1050     4.1050     0.0000
  2 C      6.2081     6.0000    -0.2081     4.0850     4.0850     0.0000
  3 C      6.1225     6.0000    -0.1225     4.1330     4.1330     0.0000
  4 C      6.1513     6.0000    -0.1513     4.1082     4.1082     0.0000
  5 C      6.1959     6.0000    -0.1959     4.0964     4.0964     0.0000
  6 C      6.0831     6.0000    -0.0831     4.1326     4.1326     0.0000
  7 C      6.1556     6.0000    -0.1556     4.1158     4.1158     0.0000
  8 C      6.1621     6.0000    -0.1621     4.1177     4.1177     0.0000
  9 C      6.2587     6.0000    -0.2587     4.0068     4.0068    -0.0000
 10 H      0.9104     1.0000     0.0896     0.9519     0.9519     0.0000
 11 H      0.9129     1.0000     0.0871     0.9649     0.9649     0.0000
 12 H      0.9149     1.0000     0.0851     0.9516     0.9516     0.0000
 13 H      0.9315     1.0000     0.0685     0.9474     0.9474     0.0000
 14 H      0.9231     1.0000     0.0769     0.9523     0.9523     0.0000
 15 H      0.9120     1.0000     0.0880     0.9509     0.9509     0.0000
 16 H      0.9026     1.0000     0.0974     0.9505     0.9505     0.0000
 17 H      0.9242     1.0000     0.0758     0.9580     0.9580     0.0000
 18 H      0.9342     1.0000     0.0658     0.9488     0.9488     0.0000
 19 H      0.9247     1.0000     0.0753     0.9613     0.9613     0.0000
 20 H      0.9374     1.0000     0.0626     0.9467     0.9467     0.0000
 21 H      0.9097     1.0000     0.0903     0.9601     0.9601     0.0000
 22 H      0.9152     1.0000     0.0848     0.9518     0.9518     0.0000
 23 H      0.9424     1.0000     0.0576     0.9513     0.9513     0.0000
 24 H      0.9378     1.0000     0.0622     0.9526     0.9526     0.0000
 25 H      0.9335     1.0000     0.0665     0.9531     0.9531     0.0000
 26 H      0.9229     1.0000     0.0771     0.9549     0.9549     0.0000
 27 H      0.9363     1.0000     0.0637     0.9435     0.9435     0.0000
 28 H      0.9098     1.0000     0.0902     0.9564     0.9564     0.0000
 29 H      0.9051     1.0000     0.0949     0.9543     0.9543     0.0000
 30 H      0.9100     1.0000     0.0900     0.9517     0.9517     0.0000
 31 H      0.9155     1.0000     0.0845     0.9670     0.9670     0.0000

  Mayer bond orders larger than 0.100000
B(  0-C ,  1-C ) :   1.1185 B(  0-C , 10-H ) :   0.9655 B(  0-C , 11-H ) :   0.9623 
[...]
      px      :     0.000000
      py      :     0.000000
      dz2     :     0.000000  d :     0.000000
      dxz     :     0.000000
      dyz     :     0.000000
      dx2y2   :     0.000000
      dxy     :     0.000000
  9 C s       :    -0.000000  s :    -0.000000
      pz      :     0.000000  p :     0.000000
      px      :     0.000000
      py      :     0.000000
      dz2     :     0.000000  d :     0.000000
      dxz     :     0.000000
      dyz     :     0.000000
      dx2y2   :     0.000000
      dxy     :     0.000000
 10 H s       :     0.000000  s :     0.000000
 11 H s       :     0.000000  s :     0.000000
 12 H s       :     0.000000  s :     0.000000
 13 H s       :     0.000000  s :     0.000000
 14 H s       :     0.000000  s :     0.000000
 15 H s       :     0.000000  s :     0.000000
 16 H s       :     0.000000  s :     0.000000
 17 H s       :     0.000000  s :     0.000000
 18 H s       :     0.000000  s :     0.000000
 19 H s       :     0.000000  s :     0.000000
 20 H s       :     0.000000  s :     0.000000
 21 H s       :     0.000000  s :     0.000000
 22 H s       :     0.000000  s :     0.000000
 23 H s       :     0.000000  s :     0.000000
 24 H s       :     0.000000  s :     0.000000
 25 H s       :     0.000000  s :     0.000000
 26 H s       :     0.000000  s :     0.000000
 27 H s       :     0.000000  s :     0.000000
 28 H s       :     0.000000  s :     0.000000
 29 H s       :     0.000000  s :     0.000000
 30 H s       :     0.000000  s :     0.000000
 31 H s       :     0.000000  s :     0.000000


                     *******************************
                     * LOEWDIN POPULATION ANALYSIS *
                     *******************************

-------------------------------------------
LOEWDIN ATOMIC CHARGES AND SPIN POPULATIONS
-------------------------------------------
   0 C :   -0.322512    0.000000
   1 C :   -0.215826    0.000000
   2 C :   -0.212746    0.000000
   3 C :   -0.214614    0.000000
   4 C :   -0.212204    0.000000
   5 C :   -0.215448    0.000000
   6 C :   -0.215305    0.000000
   7 C :   -0.214223    0.000000
   8 C :   -0.220708    0.000000
   9 C :   -0.320725    0.000000
  10 H :    0.111275    0.000000
  11 H :    0.108520    0.000000
  12 H :    0.109425    0.000000
  13 H :    0.107389    0.000000
  14 H :    0.104755    0.000000
  15 H :    0.105952    0.000000
  16 H :    0.104880    0.000000
  17 H :    0.106786    0.000000
  18 H :    0.106116    0.000000
  19 H :    0.106452    0.000000
  20 H :    0.107201    0.000000
  21 H :    0.108090    0.000000
  22 H :    0.107170    0.000000
  23 H :    0.106972    0.000000
  24 H :    0.107507    0.000000
  25 H :    0.107244    0.000000
  26 H :    0.105837    0.000000
  27 H :    0.108250    0.000000
  28 H :    0.106046    0.000000
  29 H :    0.108755    0.000000
  30 H :    0.111283    0.000000
  31 H :    0.108403    0.000000

----------------------------------------------------
LOEWDIN REDUCED ORBITAL CHARGES AND SPIN POPULATIONS
----------------------------------------------------
CHARGE
  0 C s       :     2.952280  s :     2.952280
      pz      :     1.098152  p :     3.296978
      px      :     1.110759
      py      :     1.088068
      dz2     :     0.017869  d :     0.073255
      dxz     :     0.009547
      dyz     :     0.015283
      dx2y2   :     0.010559
      dxy     :     0.019996
  1 C s       :     2.911019  s :     2.911019
      pz      :     1.081390  p :     3.214202
      px      :     1.065764
      py      :     1.067048
      dz2     :     0.018411  d :     0.090605
      dxz     :     0.014442
      dyz     :     0.019105
      dx2y2   :     0.013598
      dxy     :     0.025049
  2 C s       :     2.912335  s :     2.912335
      pz      :     1.085754  p :     3.210391
      px      :     1.049870
      py      :     1.074768
      dz2     :     0.016668  d :     0.090019
      dxz     :     0.016237
      dyz     :     0.018577
      dx2y2   :     0.018957
      dxy     :     0.019580
  3 C s       :     2.909491  s :     2.909491
      pz      :     1.083294  p :     3.214927
      px      :     1.049439
      py      :     1.082194
      dz2     :     0.014245  d :     0.090196
      dxz     :     0.017360
      dyz     :     0.020620
      dx2y2   :     0.017153
      dxy     :     0.020817
  4 C s       :     2.909495  s :     2.909495
      pz      :     1.071213  p :     3.212501
      px      :     1.058916
      py      :     1.082372
      dz2     :     0.010927  d :     0.090209
      dxz     :     0.019434
      dyz     :     0.025766
      dx2y2   :     0.012090
      dxy     :     0.021991
  5 C s       :     2.908683  s :     2.908683
      pz      :     1.063510  p :     3.216685
      px      :     1.077465
      py      :     1.075710
      dz2     :     0.016443  d :     0.090080
      dxz     :     0.018613
      dyz     :     0.024399
      dx2y2   :     0.007493
      dxy     :     0.023132
  6 C s       :     2.908458  s :     2.908458
      pz      :     1.074933  p :     3.216694
      px      :     1.073627
      py      :     1.068133
      dz2     :     0.011916  d :     0.090153
      dxz     :     0.017864
      dyz     :     0.025370
      dx2y2   :     0.012813
      dxy     :     0.022190
  7 C s       :     2.911168  s :     2.911168
      pz      :     1.085791  p :     3.212924
      px      :     1.054619
      py      :     1.072514
      dz2     :     0.009400  d :     0.090131
      dxz     :     0.018269
      dyz     :     0.026613
      dx2y2   :     0.014781
      dxy     :     0.021068
  8 C s       :     2.909493  s :     2.909493
      pz      :     1.080711  p :     3.220587
      px      :     1.056593
      py      :     1.083283
      dz2     :     0.015338  d :     0.090628
      dxz     :     0.017671
      dyz     :     0.021478
      dx2y2   :     0.014843
      dxy     :     0.021299
  9 C s       :     2.951040  s :     2.951040
      pz      :     1.099322  p :     3.296320
      px      :     1.092663
      py      :     1.104335
      dz2     :     0.014051  d :     0.073365
      dxz     :     0.014209
      dyz     :     0.016683
      dx2y2   :     0.015794
      dxy     :     0.012628
 10 H s       :     0.888725  s :     0.888725
 11 H s       :     0.891480  s :     0.891480
 12 H s       :     0.890575  s :     0.890575
 13 H s       :     0.892611  s :     0.892611
 14 H s       :     0.895245  s :     0.895245
 15 H s       :     0.894048  s :     0.894048
 16 H s       :     0.895120  s :     0.895120
 17 H s       :     0.893214  s :     0.893214
 18 H s       :     0.893884  s :     0.893884
 19 H s       :     0.893548  s :     0.893548
 20 H s       :     0.892799  s :     0.892799
 21 H s       :     0.891910  s :     0.891910
 22 H s       :     0.892830  s :     0.892830
 23 H s       :     0.893028  s :     0.893028
 24 H s       :     0.892493  s :     0.892493
 25 H s       :     0.892756  s :     0.892756
 26 H s       :     0.894163  s :     0.894163
 27 H s       :     0.891750  s :     0.891750
 28 H s       :     0.893954  s :     0.893954
 29 H s       :     0.891245  s :     0.891245
 30 H s       :     0.888717  s :     0.888717
 31 H s       :     0.891597  s :     0.891597

SPIN
  0 C s       :     0.000000  s :     0.000000
      pz      :     0.000000  p :     0.000000
      px      :     0.000000
      py      :     0.000000
      dz2     :     0.000000  d :     0.000000
      dxz     :     0.000000
      dyz     :     0.000000
      dx2y2   :     0.000000
      dxy     :     0.000000
  1 C s       :     0.000000  s :     0.000000
      pz      :     0.000000  p :     0.000000
      px      :     0.000000
      py      :     0.000000
      dz2     :     0.000000  d :     0.000000
      dxz     :     0.000000
      dyz     :     0.000000
      dx2y2   :     0.000000
      dxy     :     0.000000
  2 C s       :     0.000000  s :     0.000000
      pz      :     0.000000  p :     0.000000
      px      :     0.000000
      py      :     0.000000
      dz2     :     0.000000  d :     0.000000
      dxz     :     0.000000
      dyz     :     0.000000
      dx2y2   :     0.000000
      dxy     :     0.000000
  3 C s       :     0.000000  s :     0.000000
      pz      :     0.000000  p :     0.000000
      px      :     0.000000
      py      :     0.000000
      dz2     :     0.000000  d :     0.000000
      dxz     :     0.000000
      dyz     :     0.000000
      dx2y2   :     0.000000
      dxy     :     0.000000
  4 C s       :     0.000000  s :     0.000000
      pz      :     0.000000  p :     0.000000
      px      :     0.000000
      py      :     0.000000
      dz2     :     0.000000  d :     0.000000
      dxz     :     0.000000
      dyz     :     0.000000
      dx2y2   :     0.000000
      dxy     :     0.000000
  5 C s       :     0.000000  s :     0.000000
      pz      :     0.000000  p :     0.000000
      px      :     0.000000
      py      :     0.000000
      dz2     :     0.000000  d :     0.000000
      dxz     :     0.000000
      dyz     :     0.000000
      dx2y2   :     0.000000
      dxy     :     0.000000
  6 C s       :     0.000000  s :     0.000000
      pz      :     0.000000  p :     0.000000
      px      :     0.000000
      py      :     0.000000
      dz2     :     0.000000  d :     0.000000
      dxz     :     0.000000
      dyz     :     0.000000
      dx2y2   :     0.000000
      dxy     :     0.000000
  7 C s       :     0.000000  s :     0.000000
      pz      :     0.000000  p :     0.000000
      px      :     0.000000
      py      :     0.000000
      dz2     :     0.000000  d :     0.000000
      dxz     :     0.000000
      dyz     :     0.000000
      dx2y2   :     0.000000
      dxy     :     0.000000
  8 C s       :     0.000000  s :     0.000000
      pz      :     0.000000  p :     0.000000
      px      :     0.000000
      py      :     0.000000
      dz2     :     0.000000  d :     0.000000
      dxz     :     0.000000
      dyz     :     0.000000
      dx2y2   :     0.000000
      dxy     :     0.000000
  9 C s       :     0.000000  s :     0.000000
      pz      :     0.000000  p :     0.000000
      px      :     0.000000
      py      :     0.000000
      dz2     :     0.000000  d :     0.000000
      dxz     :     0.000000
      dyz     :     0.000000
      dx2y2   :     0.000000
      dxy     :     0.000000
 10 H s       :     0.000000  s :     0.000000
 11 H s       :     0.000000  s :     0.000000
 12 H s       :     0.000000  s :     0.000000
 13 H s       :     0.000000  s :     0.000000
 14 H s       :     0.000000  s :     0.000000
 15 H s       :     0.000000  s :     0.000000
 16 H s       :     0.000000  s :     0.000000
 17 H s       :     0.000000  s :     0.000000
 18 H s       :     0.000000  s :     0.000000
 19 H s       :     0.000000  s :     0.000000
 20 H s       :     0.000000  s :     0.000000
 21 H s       :     0.000000  s :     0.000000
 22 H s       :     0.000000  s :     0.000000
 23 H s       :     0.000000  s :     0.000000
 24 H s       :     0.000000  s :     0.000000
 25 H s       :     0.000000  s :     0.000000
 26 H s       :     0.000000  s :     0.000000
 27 H s       :     0.000000  s :     0.000000
 28 H s       :     0.000000  s :     0.000000
 29 H s       :     0.000000  s :     0.000000
 30 H s       :     0.000000  s :     0.000000
 31 H s       :     0.000000  s :     0.000000


                      *****************************
                      * MAYER POPULATION ANALYSIS *
                      *****************************

  NA   - Mulliken gross atomic population
  ZA   - Total nuclear charge
  QA   - Mulliken gross atomic charge
  VA   - Mayer's total valence
  BVA  - Mayer's bonded valence
  FA   - Mayer's free valence

  ATOM       NA         ZA         QA         VA         BVA        FA
  0 C      6.2710     6.0000    -0.2710     4.0093     4.0093    -0.0000
  1 C      6.1295     6.0000    -0.1295     4.1221     4.1221     0.0000
  2 C      6.1565     6.0000    -0.1565     4.0893     4.0893     0.0000
  3 C      6.1656     6.0000    -0.1656     4.0951     4.0951     0.0000
  4 C      6.1260     6.0000    -0.1260     4.0944     4.0944     0.0000
  5 C      6.1548     6.0000    -0.1548     4.1087     4.1087     0.0000
  6 C      6.1472     6.0000    -0.1472     4.1005     4.1005     0.0000
  7 C      6.1469     6.0000    -0.1469     4.0934     4.0934     0.0000
  8 C      6.1572     6.0000    -0.1572     4.1296     4.1296     0.0000
  9 C      6.2617     6.0000    -0.2617     4.0112     4.0112    -0.0000
 10 H      0.9095     1.0000     0.0905     0.9513     0.9513     0.0000
 11 H      0.9135     1.0000     0.0865     0.9575     0.9575     0.0000
 12 H      0.9006     1.0000     0.0994     0.9577     0.9577     0.0000
 13 H      0.9276     1.0000     0.0724     0.9456     0.9456     0.0000
 14 H      0.9317     1.0000     0.0683     0.9512     0.9512     0.0000
 15 H      0.9330     1.0000     0.0670     0.9509     0.9509     0.0000
 16 H      0.9247     1.0000     0.0753     0.9564     0.9564     0.0000
 17 H      0.9383     1.0000     0.0617     0.9524     0.9524     0.0000
 18 H      0.9098     1.0000     0.0902     0.9605     0.9605     0.0000
 19 H      0.9248     1.0000     0.0752     0.9541     0.9541     0.0000
 20 H      0.9332     1.0000     0.0668     0.9513     0.9513     0.0000
 21 H      0.9231     1.0000     0.0769     0.9523     0.9523     0.0000
 22 H      0.9269     1.0000     0.0731     0.9540     0.9540     0.0000
 23 H      0.9271     1.0000     0.0729     0.9563     0.9563     0.0000
 24 H      0.9275     1.0000     0.0725     0.9543     0.9543     0.0000
 25 H      0.9318     1.0000     0.0682     0.9503     0.9503     0.0000
 26 H      0.9233     1.0000     0.0767     0.9557     0.9557     0.0000
 27 H      0.9297     1.0000     0.0703     0.9461     0.9461     0.0000
 28 H      0.9181     1.0000     0.0819     0.9521     0.9521     0.0000
 29 H      0.9040     1.0000     0.0960     0.9586     0.9586     0.0000
 30 H      0.9102     1.0000     0.0898     0.9516     0.9516     0.0000
 31 H      0.9153     1.0000     0.0847     0.9570     0.9570     0.0000

  Mayer bond orders larger than 0.100000
B(  0-C ,  1-C ) :   1.1312 B(  0-C , 10-H ) :   0.9582 B(  0-C , 11-H ) :   0.9595 
B(  0-C , 12-H ) :   0.9561 B(  1-C ,  2-C ) :   1.1112 B(  1-C , 13-H ) :   0.9368 
B(  1-C , 14-H ) :   0.9336 B(  2-C ,  3-C ) :   1.1176 B(  2-C , 15-H ) :   0.9306 
B(  2-C , 16-H ) :   0.9204 B(  3-C ,  4-C ) :   1.1147 B(  3-C , 17-H ) :   0.9262 
B(  3-C , 18-H ) :   0.9167 B(  4-C ,  5-C ) :   1.1148 B(  4-C , 19-H ) :   0.9212 
B(  4-C , 20-H ) :   0.9269 B(  5-C ,  6-C ) :   1.1183 B(  5-C , 21-H ) :   0.9252 
B(  5-C , 22-H ) :   0.9205 B(  6-C ,  7-C ) :   1.1129 B(  6-C , 23-H ) :   0.9196 
B(  6-C , 24-H ) :   0.9267 B(  7-C ,  8-C ) :   1.1133 B(  7-C , 25-H ) :   0.9291 
B(  7-C , 26-H ) :   0.9226 B(  8-C ,  9-C ) :   1.1362 B(  8-C , 27-H ) :   0.9340 
B(  8-C , 28-H ) :   0.9275 B(  9-C , 29-H ) :   0.9533 B(  9-C , 30-H ) :   0.9584 
B(  9-C , 31-H ) :   0.9602 

-------
TIMINGS
-------

Total SCF time: 0 days 0 hours 1 min 32 sec 

Total time                  ....      92.123 sec
Sum of individual times     ....      82.110 sec  ( 89.1%)

Fock matrix formation       ....      73.146 sec  ( 79.4%)
  XC integration            ....      18.333 sec  ( 25.1% of F)
    Basis function eval.    ....       2.082 sec  ( 11.4% of XC)
    Density eval.           ....       1.945 sec  ( 10.6% of XC)
    XC-Functional eval.     ....       0.376 sec  (  2.0% of XC)
    XC-Potential eval.      ....       2.246 sec  ( 12.3% of XC)
Diagonalization             ....       0.156 sec  (  0.2%)
Density matrix formation    ....       2.102 sec  (  2.3%)
Population analysis         ....       1.721 sec  (  1.9%)
Initial guess               ....       0.061 sec  (  0.1%)
Orbital Transformation      ....       0.000 sec  (  0.0%)
Orbital Orthonormalization  ....       0.008 sec  (  0.0%)
DIIS solution               ....       1.737 sec  (  1.9%)
Grid generation             ....       3.188 sec  (  3.5%)


-------------------------------------------------------------------------------
                          DFT DISPERSION CORRECTION                            
                                                                               
                              DFTD3 V3.1  Rev 1                                
                          USING Becke-Johnson damping                          
-------------------------------------------------------------------------------
The B3LYP functional is recognized
Active option DFTDOPT                   ...         4   

molecular C6(AA) [au] = 6609.632433 


            DFT-D V3
 parameters
 s6 scaling factor         :     1.0000 
 a1 scaling factor         :     0.3981 
 s8 scaling factor         :     1.9889 
 a2 scaling factor         :     4.4211 
 ad hoc parameters k1-k3   :    16.0000     1.3333    -4.0000 

 Edisp/kcal,au: -30.376614888314  -0.048408211993 
 E6   /kcal   : -15.259038634 
 E8   /kcal   : -15.117576254 
 % E8         :  49.767152495 

-------------------------   ----------------
Dispersion correction           -0.048408212
-------------------------   ----------------


-------------------------   --------------------
FINAL SINGLE POINT ENERGY      -393.748255125937
-------------------------   --------------------

                                *** OPTIMIZATION RUN DONE ***

                            ***************************************
                            *     ORCA property calculations      *
                            ***************************************

                                    ---------------------
                                    Active property flags
                                    ---------------------
   (+) Dipole Moment


------------------------------------------------------------------------------
                       ORCA ELECTRIC PROPERTIES CALCULATION
------------------------------------------------------------------------------

Dipole Moment Calculation                       ... on
Quadrupole Moment Calculation                   ... off
Polarizability Calculation                      ... off
GBWName                                         ... orca9.gbw
Electron density file                           ... orca9.scfp
The origin for moment calculation is the CENTER OF MASS  = (-0.022616,  0.047782 -0.069195)

-------------
DIPOLE MOMENT
-------------
                                X             Y             Z
Electronic contribution:     -0.40114       0.83244      -1.23049
Nuclear contribution   :      0.39222      -0.82864       1.22031
                        -----------------------------------------
Total Dipole Moment    :     -0.00892       0.00380      -0.01018
                        -----------------------------------------
Magnitude (a.u.)       :      0.01406
Magnitude (Debye)      :      0.03573



--------------------
Rotational spectrum 
--------------------
 
Rotational constants in cm-1:     0.088399     0.015653     0.014750 
Rotational constants in MHz :  2650.135709   469.262708   442.203988 

 Dipole components along the rotational axes: 
x,y,z [a.u.] :    -0.009655    -0.009317    -0.004192 
x,y,z [Debye]:    -0.024542    -0.023682    -0.010655 

 

Timings for individual modules:

Sum of individual times         ...    10182.144 sec (= 169.702 min)
GTO integral calculation        ...      182.723 sec (=   3.045 min)   1.8 %
SCF iterations                  ...     8716.258 sec (= 145.271 min)  85.6 %
SCF Gradient evaluation         ...     1182.581 sec (=  19.710 min)  11.6 %
Geometry relaxation             ...      100.582 sec (=   1.676 min)   1.0 %
                             ****ORCA TERMINATED NORMALLY****
TOTAL RUN TIME: 0 days 2 hours 53 minutes 15 seconds 479 msec
