14
Properties=species:S:1:pos:R:3:forces:R:3:gap_forces:R:3 energy=-4305.689292365785 name=nbu_bent gap_energy=-4305.689292365785 config_type=start_0 pbc="F F F"
C       -1.60126151       0.36391654       0.04998187      -2.68019886       0.69113599      -0.06246711      -2.68019886       0.69113599      -0.06246711
C       -0.54856874      -0.46996103      -0.69099335       3.67550840      -0.14123397       2.18461998       3.67550840      -0.14123397       2.18461998
C        0.73274484      -0.77252806       0.09123643      -0.52075229       1.88079989       2.88676475      -0.52075229       1.88079989       2.88676475
C        1.64627047       0.45866181       0.47492494      -3.25166388      -0.31848290      -5.61515953      -3.25166388      -0.31848290      -5.61515953
H       -1.19277124       1.36867245       0.32318994       0.94012632      -1.12154365      -1.26317272       0.94012632      -1.12154365      -1.26317272
H       -1.93814666      -0.13594659       0.99353456       0.79297923       0.16881256      -1.69918261       0.79297923       0.16881256      -1.69918261
H       -2.54929661       0.56791073      -0.65223303       0.95352621       0.49049113       2.82195007       0.95352621       0.49049113       2.82195007
H       -0.28834007      -0.05680000      -1.59998484       1.85920598       1.77758685      -1.21153672       1.85920598       1.77758685      -1.21153672
H       -0.97756183      -1.46817868      -0.99467729      -0.59352572       0.67087742      -0.28780976      -0.59352572       0.67087742      -0.28780976
H        0.42969235      -1.23068534       1.06573436      -0.46514027      -1.18359279       0.10070490      -0.46514027      -1.18359279       0.10070490
H        1.37466568      -1.51893922      -0.32744590       1.29366263      -0.88978920       0.24197682       1.29366263      -0.88978920       0.24197682
H        2.57694679       0.25414590       0.99061339       1.88439236       0.43415980       0.42099771       1.88439236       0.43415980       0.42099771
H        1.07537137       1.20074276       1.03236007      -1.92494574      -0.53547063       0.69161377      -1.92494574      -0.53547063       0.69161377
H        1.95149703       1.01669694      -0.49764842      -1.96317437      -1.92375049       0.79070046      -1.96317437      -1.92375049       0.79070046
14
Properties=species:S:1:pos:R:3:forces:R:3:gap_forces:R:3 energy=-4305.768071759063 name=nbu_bent gap_energy=-4305.768071759063 config_type=start_1 pbc="F F F"
C       -1.62340016       0.37528897       0.03874710       3.56117453      -1.18044405      -0.69110386       3.56117453      -1.18044405      -0.69110386
C       -0.50029252      -0.40585447      -0.73470140      -1.53554895      -2.12780398       4.05803905      -1.53554895      -2.12780398       4.05803905
C        0.72233522      -0.77359822       0.16995620      -1.72682172       2.12846935      -2.48004530      -1.72682172       2.12846935      -2.48004530
C        1.60213092       0.43667132       0.46124984       1.96958941       3.40593684       0.91570525       1.96958941       3.40593684       0.91570525
H       -1.19215335       1.39031770       0.23909382       0.67366028      -0.91493184      -0.28206625       0.67366028      -0.91493184      -0.28206625
H       -1.95995527      -0.09532853       0.94925847       1.47586277      -0.55132552       0.38374863       1.47586277      -0.55132552       0.38374863
H       -2.47637521       0.48523493      -0.59389229      -2.38373314       0.67832092      -0.75817333      -2.38373314       0.67832092      -0.75817333
H       -0.24347080      -0.02214007      -1.61217236       1.55413706       2.21726169      -2.52840067       1.55413706       2.21726169      -2.52840067
H       -0.93586270      -1.39175152      -1.00483118      -0.29644324       1.18939373      -0.45883876      -0.29644324       1.18939373      -0.45883876
H        0.48499722      -1.22851637       1.09567923      -0.77403214      -1.00784390       1.67498543      -0.77403214      -1.00784390       1.67498543
H        1.39709726      -1.49488144      -0.42279489      -0.23795326      -0.11649959       1.45681609      -0.23795326      -0.11649959       1.45681609
H        2.51117675       0.22645865       1.02563643       0.81084184      -0.60538222       0.60887950       0.81084184      -0.60538222       0.60887950
H        1.03984064       1.21166788       1.09059713      -1.08716310      -1.94756404      -0.46370010      -1.08716310      -1.94756404      -0.46370010
H        1.94424840       0.99788336      -0.41287298      -2.00357033      -1.16758740      -1.43584567      -2.00357033      -1.16758740      -1.43584567
14
Properties=species:S:1:pos:R:3:forces:R:3:gap_forces:R:3 energy=-4305.34320792219 name=nbu_bent gap_energy=-4305.34320792219 config_type=start_2 pbc="F F F"
C       -1.65190566       0.40919638       0.01435606      11.22347642      -6.84627231       1.03415067      11.22347642      -6.84627231       1.03415067
C       -0.49047461      -0.47781574      -0.72686221      -3.94579206       2.25062965       3.00462879      -3.94579206       2.25062965       3.00462879
C        0.73342436      -0.78429005       0.16201039      -3.80259351       3.53596155      -0.36198584      -3.80259351       3.53596155      -0.36198584
C        1.54940657       0.50925802       0.46574436       5.09796407      -0.65489542      -1.61746378       5.09796407      -0.65489542      -1.61746378
H       -1.21463292       1.37288165       0.29179151       0.12578832       0.26421075      -0.00521273       0.12578832       0.26421075      -0.00521273
H       -1.93970771      -0.09875684       0.97614371       1.10474191       0.50507956      -1.16367815       1.10474191       0.50507956      -1.16367815
H       -2.45012378       0.53212210      -0.56637029      -5.41475266       1.06858066      -1.83177364      -5.41475266       1.06858066      -1.83177364
H       -0.17763891       0.01340287      -1.65023646      -0.36471159      -0.66374485      -2.01406534      -0.36471159      -0.66374485      -2.01406534
H       -0.99753435      -1.46558670      -0.99740695      -0.53885313       1.87424135      -1.23506682      -0.53885313       1.87424135      -1.23506682
H        0.47066718      -1.26657615       1.10521186      -0.63357653      -0.67538601       1.35169141      -0.63357653      -0.67538601       1.35169141
H        1.39053728      -1.48124677      -0.34382575       0.80489409      -0.84241813       0.72419506       0.80489409      -0.84241813       0.72419506
H        2.51228027       0.25232282       1.03515067       0.02774545       1.12979655      -0.69441535       0.02774545       1.12979655      -0.69441535
H        1.03439907       1.21348355       1.07735711      -2.47426091       0.22406693       0.60581244      -2.47426091       0.22406693       0.60581244
H        1.91426318       0.97782393      -0.52547370      -1.21006986      -1.16985029       2.20318327      -1.21006986      -1.16985029       2.20318327
14
Properties=species:S:1:pos:R:3:forces:R:3:gap_forces:R:3 energy=-4305.128014381995 name=nbu_bent gap_energy=-4305.128014381995 config_type=start_3 pbc="F F F"
C       -1.58106229       0.42982181       0.08402579      -0.25910207      -6.68953425      -1.92318493      -0.25910207      -6.68953425      -1.92318493
C       -0.59756564      -0.43384056      -0.75732958       7.97773166       0.46088719       8.17676267       7.97773166       0.46088719       8.17676267
C        0.75328435      -0.73603990       0.15553317      -6.70765865       1.81850796      -2.74514368      -6.70765865       1.81850796      -2.74514368
C        1.58726171       0.47909515       0.45892826       0.01030504      -2.04364600      -3.09347267       0.01030504      -2.04364600      -3.09347267
H       -1.19799738       1.35823609       0.30796896       2.09173066       2.56611116       0.93715590       2.09173066       2.56611116       0.93715590
H       -1.93268464      -0.17919093       0.99764696       0.85464271       1.56053684      -0.94087069       0.85464271       1.56053684      -0.94087069
H       -2.45722446       0.50439421      -0.52113237      -2.44868435       0.72908933      -0.00796126      -2.44868435       0.72908933      -0.00796126
H       -0.22933668       0.03037015      -1.63172066      -0.59253739       0.18448078      -2.64435429      -0.59253739       0.18448078      -2.64435429
H       -0.99324796      -1.46897652      -0.98733979      -0.66265233       1.68637348      -1.02220910      -0.66265233       1.68637348      -1.02220910
H        0.41280793      -1.23217777       1.11724564       0.76821851      -0.87251665       0.27871820       0.76821851      -0.87251665       0.27871820
H        1.36721717      -1.49020845      -0.37774216       0.14026159      -0.11967545       1.07959788       0.14026159      -0.11967545       1.07959788
H        2.53921216       0.20357651       0.98837932       1.28051115       1.12848501      -0.10777597       1.28051115       1.12848501      -0.10777597
H        1.02543941       1.16358491       1.06001720      -1.67555839       0.24787453       0.83586280      -1.67555839       0.24787453       0.83586280
H        1.93623669       1.00531203      -0.48895157      -0.77720814      -0.65697394       1.17687515      -0.77720814      -0.65697394       1.17687515
14
Properties=species:S:1:pos:R:3:forces:R:3:gap_forces:R:3 energy=-4305.865313641763 name=nbu_bent gap_energy=-4305.865313641763 config_type=start_4 pbc="F F F"
C       -1.60023090       0.39963232       0.03619194       2.33738313      -2.42583683      -1.12941181       2.33738313      -2.42583683      -1.12941181
C       -0.53683233      -0.49163506      -0.70602702       1.45974867       1.23921130       0.43939267       1.45974867       1.23921130       0.43939267
C        0.74606276      -0.80535733       0.11414209      -4.79520540       3.91918427       2.09821144      -4.79520540       3.91918427       2.09821144
C        1.59098805       0.46861986       0.42986578       0.86698890      -1.13234040      -0.08239360       0.86698890      -1.13234040      -0.08239360
H       -1.20979103       1.41282890       0.25643548       1.37387273       0.00797942      -0.28452388       1.37387273       0.00797942      -0.28452388
H       -1.86698515      -0.08355899       0.96463549      -0.59377468      -0.28413998       0.40480750      -0.59377468      -0.28413998       0.40480750
H       -2.48425708       0.53849659      -0.59755259      -1.50993457       0.71100690       0.43422185      -1.50993457       0.71100690       0.43422185
H       -0.26467057      -0.01763013      -1.64978912       0.30078691       0.37250427      -0.56395616       0.30078691       0.37250427      -0.56395616
H       -0.93100750      -1.45079450      -0.96339914      -0.90039433      -0.15702320      -0.41284174      -0.90039433      -0.15702320      -0.41284174
H        0.41627159      -1.19854078       1.17226999       1.62130481      -0.47544786      -1.22042183       1.62130481      -0.47544786      -1.22042183
H        1.31312058      -1.49510937      -0.42289985       1.21545194      -1.68709414       0.36554520       1.21545194      -1.68709414       0.36554520
H        2.50172364       0.22874559       1.03967209       0.48642874       0.96809353      -0.35462671       0.48642874       0.96809353      -0.35462671
H        0.99420711       1.15834090       1.04284122      -1.08380083      -0.14908877       0.72723790      -1.08380083      -0.14908877       0.72723790
H        1.89745555       0.99887311      -0.46635084      -0.77885603      -0.90700851      -0.42124082      -0.77885603      -0.90700851      -0.42124082
14
Properties=species:S:1:pos:R:3:forces:R:3:gap_forces:R:3 energy=-4305.646072501448 name=nbu_bent gap_energy=-4305.646072501448 config_type=start_5 pbc="F F F"
C       -1.56124773       0.31382865       0.09155097      -1.97434869       3.30197142      -2.76955771      -1.97434869       3.30197142      -2.76955771
C       -0.50875790      -0.47173545      -0.69678124       4.27294516       1.08266580       1.22740139       4.27294516       1.08266580       1.22740139
C        0.71828097      -0.75473419       0.11844787      -0.44878429       0.60628009       2.47432378      -0.44878429       0.60628009       2.47432378
C        1.63286676       0.50467448       0.47898891      -6.73252564      -3.31759324      -2.89209109      -6.73252564      -3.31759324      -2.89209109
H       -1.22283881       1.40453372       0.27953951       0.55378466      -2.08955045      -0.68701214       0.55378466      -2.08955045      -0.68701214
H       -1.90144397      -0.14346196       0.95584532       0.57305042      -0.98338701       1.89726577       0.57305042      -0.98338701       1.89726577
H       -2.46204121       0.47309779      -0.57358413      -0.75791347       0.50533580       0.91608123      -0.75791347       0.50533580       0.91608123
H       -0.21534413       0.00330946      -1.66766221       0.02625952      -0.21266690       0.51628294       0.02625952      -0.21266690       0.51628294
H       -0.97862997      -1.43080989      -0.97333672      -0.32039507       0.92361393      -0.85620781      -0.32039507       0.92361393      -0.85620781
H        0.42181262      -1.33580181       1.10953873       1.11858875       0.23056163      -1.07728046       1.11858875       0.23056163      -1.07728046
H        1.34382734      -1.48006217      -0.36366620       0.50784539       0.02814912       0.71826919       0.50784539       0.02814912       0.71826919
H        2.48845305       0.15857000       1.00391370       2.62796835       1.37265670       1.56778738       2.62796835       1.37265670       1.56778738
H        1.04127410       1.24302502       1.13624964       0.86797957      -1.86570088      -1.03712312       0.86797957      -1.86570088      -1.03712312
H        1.92080582       0.97150603      -0.45738295      -0.31445466       0.41766400       0.00186066      -0.31445466       0.41766400       0.00186066
14
Properties=species:S:1:pos:R:3:forces:R:3:gap_forces:R:3 energy=-4305.641041458047 name=nbu_bent gap_energy=-4305.641041458047 config_type=start_6 pbc="F F F"
C       -1.61990221       0.39610261       0.03344371       4.96526526      -2.16647668      -1.67086415       4.96526526      -2.16647668      -1.67086415
C       -0.55507351      -0.48460107      -0.72602157       4.86572556       4.08511390       2.54971433       4.86572556       4.08511390       2.54971433
C        0.75590495      -0.74160243       0.10567740      -4.52680894       0.34529055       1.29874716      -4.52680894       0.34529055       1.29874716
C        1.61590037       0.51075683       0.45342164      -4.37922722      -1.45689354      -1.81732009      -4.37922722      -1.45689354      -1.81732009
H       -1.16423155       1.40933956       0.30469295       0.28936893      -1.27296528      -0.77537972       0.28936893      -1.27296528      -0.77537972
H       -1.88045592      -0.10527757       0.94206219      -0.57172560      -0.07673149       0.80462688      -0.57172560      -0.07673149       0.80462688
H       -2.44763421       0.51728422      -0.64116621      -1.53770013       1.05456286       0.42490271      -1.53770013       1.05456286       0.42490271
H       -0.22200973       0.00122864      -1.67894752      -0.27740047       0.29265920       0.45297643      -0.27740047       0.29265920       0.45297643
H       -0.95429260      -1.40775937      -0.98806521      -1.38358075      -0.44289911      -0.65338144      -1.38358075      -0.44289911      -0.65338144
H        0.42815012      -1.25093856       1.08045876       0.78792459       0.11873774      -0.57084456       0.78792459       0.11873774      -0.57084456
H        1.34860164      -1.48965452      -0.38447146       0.84252827      -0.03319602       0.58231017       0.84252827      -0.03319602       0.58231017
H        2.47661732       0.23158536       1.02007552       2.02897906       0.58419718       1.33780288       2.02897906       0.58419718       1.33780288
H        0.98189563       1.24479023       1.07772763      -0.34657305      -1.44453409      -0.86644214      -0.34657305      -1.44453409      -0.86644214
H        1.92925003       1.00928278      -0.44272735      -0.75677551       0.41313478      -1.09684847      -0.75677551       0.41313478      -1.09684847
14
Properties=species:S:1:pos:R:3:forces:R:3:gap_forces:R:3 energy=-4305.808890360346 name=nbu_bent gap_energy=-4305.808890360346 config_type=start_7 pbc="F F F"
C       -1.57427543       0.33914791       0.00686052      -2.14851638       2.40673848       1.88817029      -2.14851638       2.40673848       1.88817029
C       -0.48455493      -0.49617104      -0.72348658       0.22212743      -1.17651058       1.11362076       0.22212743      -1.17651058       1.11362076
C        0.70549486      -0.78114168       0.12417044      -1.00630683       0.94876397       0.18743076      -1.00630683       0.94876397       0.18743076
C        1.54172315       0.46773207       0.46401361       5.39396393       0.46720291      -0.07396330       5.39396393       0.46720291      -0.07396330
H       -1.19891837       1.42878444       0.27474882       0.11301705      -2.64415621      -1.09991998       0.11301705      -2.64415621      -1.09991998
H       -1.95636492      -0.14251898       0.90943060       2.02509370      -0.73320665       0.78394644       2.02509370      -0.73320665       0.78394644
H       -2.45645897       0.49253166      -0.55938631      -1.97104308       0.74769790      -1.69096614      -1.97104308       0.74769790      -1.69096614
H       -0.24435169       0.03281338      -1.61373360      -0.19301183      -0.03610355      -1.80816872      -0.19301183      -0.03610355      -1.80816872
H       -1.01338417      -1.45835807      -1.03616673      -0.04819241       1.03514391      -1.21318857      -0.04819241       1.03514391      -1.21318857
H        0.45323516      -1.25237279       1.11532630       0.04910190      -0.38701410       0.28592197       0.04910190      -0.38701410       0.28592197
H        1.33818268      -1.47038268      -0.40279938      -0.08532363      -0.37531318       0.85528834      -0.08532363      -0.37531318       0.85528834
H        2.50856224       0.22471164       1.02601900      -0.43412956       0.47352958      -0.25576223      -0.43412956       0.47352958      -0.25576223
H        1.01404187       1.20243790       1.01941625      -1.82870812      -0.08594292       1.52861136      -1.82870812      -0.08594292       1.52861136
H        1.87871665       0.97585022      -0.44066075      -0.08807217      -0.64082958      -0.50102100      -0.08807217      -0.64082958      -0.50102100
14
Properties=species:S:1:pos:R:3:forces:R:3:gap_forces:R:3 energy=-4305.867347698933 name=nbu_bent gap_energy=-4305.867347698933 config_type=start_8 pbc="F F F"
C       -1.53215897       0.36902166      -0.00387957      -4.46654711       0.77050977       2.19259473      -4.46654711       0.77050977       2.19259473
C       -0.54188214      -0.47199116      -0.71661903       1.34566067       1.55598756       2.00955161       1.34566067       1.55598756       2.00955161
C        0.72635090      -0.75491313       0.17235701       0.16212710      -1.01924111      -0.72422700       0.16212710      -1.01924111      -0.72422700
C        1.56087574       0.49396683       0.47060689       1.95468376      -0.06266589      -1.96858616       1.95468376      -0.06266589      -1.96858616
H       -1.18772357       1.40745466       0.28451842       1.29187546      -1.60601701      -1.13319797       1.29187546      -1.60601701      -1.13319797
H       -1.93893193      -0.13599340       0.95742384       1.93376179       0.22048307      -1.18222673       1.93376179       0.22048307      -1.18222673
H       -2.49435928       0.52623058      -0.51920574      -2.00963891       0.80634047      -0.20943682      -2.00963891       0.80634047      -0.20943682
H       -0.17558463       0.00442785      -1.62501762       0.57973656      -0.69176751      -1.87882156       0.57973656      -0.69176751      -1.87882156
H       -0.99436158      -1.44718197      -1.03253854      -0.19358598       0.50655206      -1.48892631      -0.19358598       0.50655206      -1.48892631
H        0.41525791      -1.25504035       1.10897668       0.65887570      -1.06543140       0.49542455       0.65887570      -1.06543140       0.49542455
H        1.39280094      -1.52668531      -0.38223757      -0.46066947       0.97494495       1.90868867      -0.46066947       0.97494495       1.90868867
H        2.49153473       0.21137200       1.01549188       1.05996317       1.28548996      -0.22267983       1.05996317       1.28548996      -0.22267983
H        1.01324240       1.22873779       1.07564149      -0.80264176      -0.27388773       0.31940014      -0.80264176      -0.27388773       0.31940014
H        1.91722635       1.02087967      -0.49839695      -1.05360098      -1.40129720       1.88244268      -1.05360098      -1.40129720       1.88244268
14
Properties=species:S:1:pos:R:3:forces:R:3:gap_forces:R:3 energy=-4306.063814755576 name=nbu_bent gap_energy=-4306.063814755576 config_type=start_9 pbc="F F F"
C       -1.55950631       0.40357932      -0.00653209      -3.54273255       0.70717942       2.16486379      -3.54273255       0.70717942       2.16486379
C       -0.51667544      -0.48411926      -0.66256620       0.63981474       0.51030884      -1.86787175       0.63981474       0.51030884      -1.86787175
C        0.72240383      -0.78292651       0.13535304      -0.89694111       0.46463417      -0.79992305      -0.89694111       0.46463417      -0.79992305
C        1.57438847       0.48103706       0.42566667       2.39051068      -0.89649771       0.41887401       2.39051068      -0.89649771       0.41887401
H       -1.20671535       1.43441279       0.28664791       0.55543528      -1.03965936      -1.74933317       0.55543528      -1.03965936      -1.74933317
H       -1.86452139      -0.07098069       0.94627689      -0.03343009      -0.15416449      -0.54568236      -0.03343009      -0.15416449      -0.54568236
H       -2.52694926       0.54750757      -0.60229146       0.40603036       0.59140366       1.02754886       0.40603036       0.59140366       1.02754886
H       -0.26047669       0.01209967      -1.65898746       0.43917695      -0.05339300      -0.26285632       0.43917695      -0.05339300      -0.26285632
H       -0.98039229      -1.40190358      -1.00458977      -0.29671924       0.28404221      -0.41777808      -0.29671924       0.28404221      -0.41777808
H        0.42207795      -1.27019150       1.02845156       0.27380935      -0.66964900       0.40304829       0.27380935      -0.66964900       0.40304829
H        1.35161825      -1.53780831      -0.38757884       1.01254690       0.27540359       1.53175488       1.01254690       0.27540359       1.53175488
H        2.48315371       0.16424612       1.00759334       0.63501847       1.08343152      -0.57891533       0.63501847       1.08343152      -0.57891533
H        1.03677769       1.16116049       1.09307410      -0.64016908      -0.04312921       0.62821947      -0.64016908      -0.04312921       0.62821947
H        1.89386043       1.00048180      -0.47598893      -0.94235065      -1.05991064       0.04805076      -0.94235065      -1.05991064       0.04805076
14
Properties=species:S:1:pos:R:3:forces:R:3:gap_forces:R:3 energy=-4305.4467938169555 name=nbu_bent gap_energy=-4305.4467938169555 config_type=start_10 pbc="F F F"
C       -1.61363159       0.37618426      -0.01930375       4.08168736       0.07287922       4.16189231       4.08168736       0.07287922       4.16189231
C       -0.51213693      -0.47974734      -0.67881701       0.21762386      -1.33378141      -1.91051727       0.21762386      -1.33378141      -1.91051727
C        0.71743835      -0.81857249       0.11957201      -3.22640112       4.88158978       1.62956138      -3.22640112       4.88158978       1.62956138
C        1.55407294       0.48600079       0.47019495       3.94738102      -3.34271194      -2.82177464       3.94738102      -3.34271194      -2.82177464
H       -1.19520372       1.43043814       0.31268662      -0.60169190      -2.60313292      -1.59444310      -0.60169190      -2.60313292      -1.59444310
H       -1.94351280      -0.06253681       0.94808676       1.37925517      -0.24259887      -0.51739406       1.37925517      -0.24259887      -0.51739406
H       -2.45176237       0.52614231      -0.59933682      -3.10179455       1.25869133      -1.27735609      -3.10179455       1.25869133      -1.27735609
H       -0.19561037      -0.01581454      -1.63257406      -0.42501308      -0.64110237      -0.72249269      -0.42501308      -0.64110237      -0.72249269
H       -1.00663621      -1.45968472      -0.98436135       0.03497206       1.78246371      -0.34205220       0.03497206       1.78246371      -0.34205220
H        0.43979891      -1.27893393       1.11443721       0.09316139      -0.58932375      -0.28530238       0.09316139      -0.58932375      -0.28530238
H        1.39592192      -1.49242574      -0.40476242       0.59561852      -0.41477762       1.09379262       0.59561852      -0.41477762       1.09379262
H        2.48911159       0.18015496       0.99430869       0.15444463       0.72400567      -0.02860434       0.15444463       0.72400567      -0.02860434
H        1.10093347       1.22520457       1.02927308      -2.63266190       1.09739142       1.76387431      -2.63266190       1.09739142       1.76387431
H        1.86972633       0.97406152      -0.48359297      -0.51658148      -0.64959224       0.85081616      -0.51658148      -0.64959224       0.85081616
14
Properties=species:S:1:pos:R:3:forces:R:3:gap_forces:R:3 energy=-4305.628069558977 name=nbu_bent gap_energy=-4305.628069558977 config_type=start_11 pbc="F F F"
C       -1.60560822       0.41343118      -0.00074721      -1.00134738      -2.75040036       2.50813292      -1.00134738      -2.75040036       2.50813292
C       -0.55389390      -0.49488157      -0.71395214       3.92661807       2.74563946       0.58281036       3.92661807       2.74563946       0.58281036
C        0.68707063      -0.76327834       0.11347036       2.27251540       2.73047628       1.71228025       2.27251540       2.73047628       1.71228025
C        1.62347243       0.50349083       0.48324168      -5.57666677      -4.00502335      -5.61610788      -5.57666677      -4.00502335      -5.61610788
H       -1.18051210       1.39363891       0.25819059       1.36774496      -0.35859309      -0.33084041       1.36774496      -0.35859309      -0.33084041
H       -1.95699044      -0.12201671       1.01026354       1.59541352       1.52075399      -3.43010347       1.59541352       1.52075399      -3.43010347
H       -2.49163808       0.55814671      -0.61332328      -1.91353474       0.78080429       0.86926859      -1.91353474       0.78080429       0.86926859
H       -0.22505235       0.04377965      -1.68213152      -0.46487524      -0.72765430       0.37329483      -0.46487524      -0.72765430       0.37329483
H       -1.01324329      -1.43963598      -1.03342788      -1.02166179       0.79682422      -1.13307085      -1.02166179       0.79682422      -1.13307085
H        0.43473764      -1.24463932       1.06893325       0.10521595      -0.37353472       0.76207764       0.10521595      -0.37353472       0.76207764
H        1.36662484      -1.48029439      -0.42488524       0.50536646       0.52090457       1.35632496       0.50536646       0.52090457       1.35632496
H        2.51660808       0.21533050       1.00008988       2.08390824       0.52097008       0.36757075       2.08390824       0.52097008       0.36757075
H        1.03162963       1.20488570       1.07772977      -1.59375292      -0.23120478       0.48616175      -1.59375292      -0.23120478       0.48616175
H        1.88689737       1.05953312      -0.47939790      -0.28494377      -1.16996229       1.49220055      -0.28494377      -1.16996229       1.49220055
14
Properties=species:S:1:pos:R:3:forces:R:3:gap_forces:R:3 energy=-4305.403870073509 name=nbu_bent gap_energy=-4305.403870073509 config_type=start_12 pbc="F F F"
C       -1.60500191       0.37678534       0.00455714       2.85006245      -1.08200536       1.98767998       2.85006245      -1.08200536       1.98767998
C       -0.54950320      -0.48197724      -0.71285549       3.92396807       0.71897451       1.51240677       3.92396807       0.71897451       1.51240677
C        0.69550796      -0.83513876       0.14049171       1.66676558       6.56041701      -0.30498887       1.66676558       6.56041701      -0.30498887
C        1.63041441       0.45438628       0.46465165      -5.54794601      -2.43629242      -3.43450256      -5.54794601      -2.43629242      -3.43450256
H       -1.17002974       1.40878544       0.25832200       0.47750063      -2.15905627      -0.95721398       0.47750063      -2.15905627      -0.95721398
H       -1.93627599      -0.09267147       0.97596235       1.05500607       0.69639369      -1.30590750       1.05500607       0.69639369      -1.30590750
H       -2.42641193       0.45963749      -0.63055488      -2.90004916       1.26106209      -0.53558417      -2.90004916       1.26106209      -0.53558417
H       -0.16477719       0.00088923      -1.62252151      -1.21746704      -0.32149276      -0.64155252      -1.21746704      -0.32149276      -0.64155252
H       -0.98681999      -1.46994918      -0.97897355       0.07819815       1.72679525      -0.20133499       0.07819815       1.72679525      -0.20133499
H        0.42856680      -1.24125871       1.06127225      -0.26142006      -1.75245019       1.65805480      -0.26142006      -1.75245019       1.65805480