1
Lattice="40.0 0.0 0.0 0.0 40.0 0.0 0.0 0.0 40.0" Properties=species:S:1:pos:R:3 dft_energy=-1028.4321581399468 config_type=isolated_atom  pbc="F F F"
C        0.00000000       0.00000000       0.00000000
1
Lattice="40.0 0.0 0.0 0.0 40.0 0.0 0.0 0.0 40.0" Properties=species:S:1:pos:R:3 dft_energy=-13.547478676206193 config_type=isolated_atom  pbc="F F F"
H        0.00000000       0.00000000       0.00000000
1
Lattice="40.0 0.0 0.0 0.0 40.0 0.0 0.0 0.0 40.0" Properties=species:S:1:pos:R:3 dft_energy=-2040.0734198446598 config_type=isolated_atom  pbc="F F F"
O        0.00000000       0.00000000       0.00000000
