1
Lattice="20.0 0.0 0.0 0.0 20.0 0.0 0.0 0.0 20.0" Properties=species:S:1:pos:R:3 config_type=isolated_atom dft_energy=-1026.1554776662724 pbc="F F F"
C        0.00000000       0.00000000       0.00000000
1
Lattice="20.0 0.0 0.0 0.0 20.0 0.0 0.0 0.0 20.0" Properties=species:S:1:pos:R:3 config_type=isolated_atom dft_energy=-13.54744977848976 pbc="F F F"
H        0.00000000       0.00000000       0.00000000
1
Lattice="20.0 0.0 0.0 0.0 20.0 0.0 0.0 0.0 20.0" Properties=species:S:1:pos:R:3 config_type=isolated_atom dft_energy=-2037.2384236942685 pbc="F F F"
O        0.00000000       0.00000000       0.00000000
