5
Lattice="50.0 0.0 0.0 0.0 50.0 0.0 0.0 0.0 50.0" Properties=species:S:1:pos:R:3:dft_forces:R:3 config_type=rdkit compound=id_bde_1 mol_or_rad=mol rad_num=mol graph_name=id_bde_1_mol dataset_type=bde_test dft_opt_mol_positions_hash=5d0c1fd744a58cae64c820c9c988cc0e bde_config_type=dft_optimised dft_energy=-1100.5335716900106 dft_dipole="0.00012708732253120542 -5.083492901248217e-05 -0.0001525047870374465" pbc="F F F"
C        0.00000187       0.00009600       0.00001494      -0.00006280      -0.00228320      -0.00145000
H       -0.68346571       0.86218590      -0.08595715       0.00130004       0.00111540       0.00066727
H       -0.39836838      -0.84497068      -0.58734520       0.00130390       0.00077564       0.00126677
H        0.08652018      -0.29668531       1.05936114      -0.00093284       0.00082598       0.00019300
H        0.99531204       0.27937408      -0.38607373      -0.00129931       0.00210212      -0.00087183
4
Lattice="50.0 0.0 0.0 0.0 50.0 0.0 0.0 0.0 50.0" Properties=species:S:1:pos:R:3:dft_forces:R:3 config_type=rdkit compound=id_bde_1 mol_or_rad=rad rad_num=4 graph_name=id_bde_1_rad4 dataset_type=bde_test dft_opt_mol_positions_hash=5d0c1fd744a58cae64c820c9c988cc0e bde_config_type=dft_optimised dft_energy=-1081.9457639170507 dft_dipole="-0.00048293182561858064 -0.00017792225154368758 0.00045751436111233953" pbc="F F F"
C       -0.24876680      -0.06957795       0.09636037       0.00271387      -0.00964597       0.00190887
H       -0.61956603       0.93539817      -0.12902540       0.00021735       0.00061930      -0.00110081
H       -0.31854290      -0.86102711      -0.65670126      -0.00195689       0.00285984      -0.00438581
H        0.19150785      -0.28411495       1.07539372      -0.00042315       0.00450208       0.00108495
5
Lattice="50.0 0.0 0.0 0.0 50.0 0.0 0.0 0.0 50.0" Properties=species:S:1:pos:R:3:dft_forces:R:3 config_type=rdkit compound=id_bde_2 mol_or_rad=mol rad_num=mol graph_name=id_bde_2_mol dataset_type=bde_test dft_opt_mol_positions_hash=c658f6700519b2a3444a64bea2b166cf bde_config_type=dft_optimised dft_energy=-1100.5335457763354 dft_dipole="0.00017792225154368758 -0.0001525047870374465 -0.0002795921095686519" pbc="F F F"
C       -0.00003579      -0.00002410       0.00006241      -0.00058449      -0.00168763      -0.00173989
H       -0.58225007      -0.19000339       0.91802875       0.00004848      -0.00060022       0.00052587
H        0.45796928       1.00246363       0.05569080      -0.00023389      -0.00078946       0.00047922
H       -0.66831438      -0.05091269      -0.87661765      -0.00047751      -0.00067748       0.00045891
H        0.79263196      -0.76152346      -0.09716431       0.00028005      -0.00060626       0.00130201
4
Lattice="50.0 0.0 0.0 0.0 50.0 0.0 0.0 0.0 50.0" Properties=species:S:1:pos:R:3:dft_forces:R:3 config_type=rdkit compound=id_bde_2 mol_or_rad=rad rad_num=1 graph_name=id_bde_2_rad1 dataset_type=bde_test dft_opt_mol_positions_hash=c658f6700519b2a3444a64bea2b166cf bde_config_type=dft_optimised dft_energy=-1081.9454832027056 dft_dipole="-0.0007371064706809914 -0.000610019148149786 0.0009658636512371613" pbc="F F F"
C        0.14581892       0.04777711      -0.22972314      -0.00188173      -0.00950228      -0.00459582
H        0.42348629       1.03592076       0.15077818       0.00001452       0.00070944       0.00028758
H       -0.76194732      -0.07306025      -0.82950382      -0.00104856       0.00505080       0.00005333
H        0.77491277      -0.82062898      -0.00958630       0.00386745       0.00291779       0.00293846
