
                                 *****************
                                 * O   R   C   A *
                                 *****************

           --- An Ab Initio, DFT and Semiempirical electronic structure package ---

                  #######################################################
                  #                        -***-                        #
                  #          Department of theory and spectroscopy      #
                  #               Directorship: Frank Neese             #
                  #        Max Planck Institute fuer Kohlenforschung    #
                  #                Kaiser Wilhelm Platz 1               #
                  #                 D-45470 Muelheim/Ruhr               #
                  #                      Germany                        #
                  #                                                     #
                  #                  All rights reserved                #
                  #                        -***-                        #
                  #######################################################


                         Program Version 4.2.1 -  RELEASE  -


 With contributions from (in alphabetic order):
   Daniel Aravena         : Magnetic Suceptibility
   Michael Atanasov       : Ab Initio Ligand Field Theory (pilot matlab implementation)
   Alexander A. Auer      : GIAO ZORA, VPT2
   Ute Becker             : Parallelization
   Giovanni Bistoni       : ED, misc. LED, open-shell LED, HFLD
   Martin Brehm           : Molecular dynamics
   Dmytro Bykov           : SCF Hessian
   Vijay G. Chilkuri      : MRCI spin determinant printing, contributions to CSF-ICE
   Dipayan Datta          : RHF DLPNO-CCSD density
   Achintya Kumar Dutta   : EOM-CC, STEOM-CC
   Dmitry Ganyushin       : Spin-Orbit,Spin-Spin,Magnetic field MRCI
   Miquel Garcia          : C-PCM Hessian, Gaussian charge scheme
   Yang Guo               : DLPNO-NEVPT2, CIM, IAO-localization
   Andreas Hansen         : Spin unrestricted coupled pair/coupled cluster methods
   Benjamin Helmich-Paris : CASSCF linear response (MC-RPA)
   Lee Huntington         : MR-EOM, pCC
   Robert Izsak           : Overlap fitted RIJCOSX, COSX-SCS-MP3, EOM
   Christian Kollmar      : KDIIS, OOCD, Brueckner-CCSD(T), CCSD density
   Simone Kossmann        : Meta GGA functionals, TD-DFT gradient, OOMP2, MP2 Hessian
   Martin Krupicka        : AUTO-CI
   Lucas Lang             : DCDCAS
   Dagmar Lenk            : GEPOL surface, SMD
   Dimitrios Liakos       : Extrapolation schemes; Compound Job, initial MDCI parallelization
   Dimitrios Manganas     : Further ROCIS development; embedding schemes
   Dimitrios Pantazis     : SARC Basis sets
   Taras Petrenko         : DFT Hessian,TD-DFT gradient, ASA, ECA, R-Raman, ABS, FL, XAS/XES, NRVS
   Peter Pinski           : DLPNO-MP2, DLPNO-MP2 Gradient
   Christoph Reimann      : Effective Core Potentials
   Marius Retegan         : Local ZFS, SOC
   Christoph Riplinger    : Optimizer, TS searches, QM/MM, DLPNO-CCSD(T), (RO)-DLPNO pert. Triples
   Tobias Risthaus        : Range-separated hybrids, TD-DFT gradient, RPA, STAB
   Michael Roemelt        : Original ROCIS implementation
   Masaaki Saitow         : Open-shell DLPNO-CCSD energy and density
   Barbara Sandhoefer     : DKH picture change effects
   Avijit Sen             : IP-ROCIS
   Kantharuban Sivalingam : CASSCF convergence, NEVPT2, FIC-MRCI
   Bernardo de Souza      : ESD, SOC TD-DFT
   Georgi Stoychev        : AutoAux, RI-MP2 NMR
   Willem Van den Heuvel  : Paramagnetic NMR
   Boris Wezisla          : Elementary symmetry handling
   Frank Wennmohs         : Technical directorship


 We gratefully acknowledge several colleagues who have allowed us to
 interface, adapt or use parts of their codes:
   Stefan Grimme, W. Hujo, H. Kruse,             : VdW corrections, initial TS optimization,
                  C. Bannwarth                     DFT functionals, gCP, sTDA/sTD-DF
   Ed Valeev, F. Pavosevic, A. Kumar             : LibInt (2-el integral package), F12 methods
   Garnet Chan, S. Sharma, J. Yang, R. Olivares  : DMRG
   Ulf Ekstrom                                   : XCFun DFT Library
   Mihaly Kallay                                 : mrcc  (arbitrary order and MRCC methods)
   Andreas Klamt, Michael Diedenhofen            : otool_cosmo (COSMO solvation model)
   Jiri Pittner, Ondrej Demel                    : Mk-CCSD
   Frank Weinhold                                : gennbo (NPA and NBO analysis)
   Christopher J. Cramer and Donald G. Truhlar   : smd solvation model
   Lars Goerigk                                  : TD-DFT with DH, B97 family of functionals
   V. Asgeirsson, H. Jonsson                     : NEB implementation
   FAccTs GmbH                                   : IRC, NEB, NEB-TS, Multilevel, MM, QM/MM, CI optimization
   S Lehtola, MJT Oliveira, MAL Marques          : LibXC Library


 Your calculation uses the libint2 library for the computation of 2-el integrals
 For citations please refer to: http://libint.valeyev.net

 Your ORCA version has been built with support for libXC version: 4.2.3
 For citations please refer to: https://tddft.org/programs/libxc/

 This ORCA versions uses:
   CBLAS   interface :  Fast vector & matrix operations
   LAPACKE interface :  Fast linear algebra routines
   SCALAPACK package :  Parallel linear algebra routines


Your calculation utilizes the atom-pairwise dispersion correction
with the Becke-Johnson damping scheme (D3BJ)
Cite in your paper:
S.Grimme, S.Ehrlich, L.Goerigk, J Comput Chem, (2011), 32, 1456–1465 
S.Grimme, J.Antony, S.Ehrlich and H.Krieg, J.Chem.Phys., 132, (2010), 154104 
   

----- Orbital basis set information -----
Your calculation utilizes the basis: def2-SV(P)
   F. Weigend and R. Ahlrichs, Phys. Chem. Chem. Phys. 7, 3297 (2005).

----- AuxJ basis set information -----
Your calculation utilizes the auxiliary basis: def2/J
   F. Weigend, Phys. Chem. Chem. Phys. 8, 1057 (2006).

================================================================================
                                        WARNINGS
                       Please study these warnings very carefully!
================================================================================


WARNING: Geometry Optimization
  ===> : Switching off AutoStart
         For restart on a previous wavefunction, please use MOREAD

INFO   : the flag for use of LIBINT has been found!

================================================================================
                                       INPUT FILE
================================================================================
NAME = orca4.inp
|  1> ! UKS B3LYP def2-SV(P) def2/J D3BJ Opt
|  2> %scf Convergence VeryTight
|  3> SmearTemp 2000
|  4> maxiter 500
|  5> end
|  6> *xyz 0 2
|  7> C 0.089792 -0.07288 0.485406
|  8> C 0.198814 1.413693 0.293692
|  9> C -1.328367 -0.476455 0.097331
| 10> C 1.124415 -0.866223 -0.251913
| 11> H 0.273194 -0.252818 1.575996
| 12> H 1.21457 1.804462 0.446761
| 13> H -0.557889 1.87288 0.97997
| 14> H -1.778577 -0.958997 0.979185
| 15> H -1.231066 -1.130487 -0.782196
| 16> H -1.949483 0.382719 -0.188123
| 17> H 1.681171 -1.580027 0.408605
| 18> H 0.583725 -1.523462 -0.980085
| 19> H 1.858202 -0.262108 -0.80596
| 20> *
| 21> 
| 22>                          ****END OF INPUT****
================================================================================

                       *****************************
                       * Geometry Optimization Run *
                       *****************************

Geometry optimization settings:
Update method            Update   .... BFGS
Choice of coordinates    CoordSys .... Z-matrix Internals
Initial Hessian          InHess   .... Almoef's Model

Convergence Tolerances:
Energy Change            TolE     ....  5.0000e-06 Eh
Max. Gradient            TolMAXG  ....  3.0000e-04 Eh/bohr
RMS Gradient             TolRMSG  ....  1.0000e-04 Eh/bohr
Max. Displacement        TolMAXD  ....  4.0000e-03 bohr
RMS Displacement         TolRMSD  ....  2.0000e-03 bohr
Strict Convergence                ....  False
------------------------------------------------------------------------------
                        ORCA OPTIMIZATION COORDINATE SETUP
------------------------------------------------------------------------------

The optimization will be done in new redundant internal coordinates
Making redundant internal coordinates   ...  (new redundants) done
Evaluating the initial hessian          ...  (Almloef) done
Evaluating the coordinates              ...  done
Calculating the B-matrix                .... done
Calculating the G-matrix                .... done
Diagonalizing the G-matrix              .... done
The first mode is                       ....   24
The number of degrees of freedom        ....   33

    -----------------------------------------------------------------
                    Redundant Internal Coordinates


    -----------------------------------------------------------------
         Definition                    Initial Value    Approx d2E/dq
    -----------------------------------------------------------------
      1. B(C   1,C   0)                  1.5028         0.412766   
      2. B(C   2,C   0)                  1.5247         0.380947   
      3. B(C   3,C   0)                  1.4978         0.420448   
      4. B(H   4,C   0)                  1.1204         0.321994   
      5. B(H   5,C   1)                  1.0990         0.348337   
      6. B(H   6,C   1)                  1.1200         0.322507   
      7. B(H   7,C   2)                  1.1015         0.345261   
      8. B(H   8,C   2)                  1.1004         0.346652   
      9. B(H   9,C   2)                  1.0979         0.349762   
     10. B(H  10,C   3)                  1.1206         0.321795   
     11. B(H  11,C   3)                  1.1201         0.322447   
     12. B(H  12,C   3)                  1.1002         0.346899   
     13. A(C   1,C   0,H   4)          105.7327         0.323676   
     14. A(C   2,C   0,H   4)          110.9460         0.319453   
     15. A(C   1,C   0,C   2)          107.2676         0.370861   
     16. A(C   1,C   0,C   3)          114.2691         0.377226   
     17. A(C   2,C   0,C   3)          112.1479         0.372040   
     18. A(C   3,C   0,H   4)          106.3208         0.324657   
     19. A(H   5,C   1,H   6)          113.1606         0.284390   
     20. A(C   0,C   1,H   6)          106.1628         0.323760   
     21. A(C   0,C   1,H   5)          113.6397         0.327890   
     22. A(H   7,C   2,H   9)          108.6480         0.287612   
     23. A(C   0,C   2,H   9)          112.6582         0.323809   
     24. A(H   7,C   2,H   8)          114.5632         0.287211   
     25. A(C   0,C   2,H   8)          106.1723         0.323335   
     26. A(H   8,C   2,H   9)          107.8987         0.287793   
     27. A(C   0,C   2,H   7)          106.9995         0.323121   
     28. A(H  11,C   3,H  12)          108.4685         0.284199   
     29. A(H  10,C   3,H  12)          108.3748         0.284110   
     30. A(C   0,C   3,H  12)          114.6941         0.328665   
     31. A(H  10,C   3,H  11)          104.4338         0.280909   
     32. A(C   0,C   3,H  11)          107.3003         0.324732   
     33. A(C   0,C   3,H  10)          112.9806         0.324624   
     34. D(H   6,C   1,C   0,C   3)   -174.1616         0.012613   
     35. D(H   6,C   1,C   0,H   4)    -57.5931         0.012613   
     36. D(H   6,C   1,C   0,C   2)     60.8638         0.012613   
     37. D(H   5,C   1,C   0,H   4)     67.4271         0.012613   
     38. D(H   5,C   1,C   0,C   2)   -174.1160         0.012613   
     39. D(H   5,C   1,C   0,C   3)    -49.1413         0.012613   
     40. D(H   7,C   2,C   0,C   1)   -121.5887         0.011563   
     41. D(H   9,C   2,C   0,C   1)     -2.2514         0.011563   
     42. D(H   8,C   2,C   0,H   4)   -129.3324         0.011563   
     43. D(H   8,C   2,C   0,C   1)    115.6418         0.011563   
     44. D(H   7,C   2,C   0,H   4)     -6.5630         0.011563   
     45. D(H   7,C   2,C   0,C   3)    112.1665         0.011563   
     46. D(H   9,C   2,C   0,C   3)   -128.4961         0.011563   
     47. D(H   9,C   2,C   0,H   4)    112.7744         0.011563   
     48. D(H   8,C   2,C   0,C   3)    -10.6029         0.011563   
     49. D(H  12,C   3,C   0,H   4)   -113.7946         0.013986   
     50. D(H  12,C   3,C   0,C   1)      2.4335         0.013986   
     51. D(H  11,C   3,C   0,H   4)    125.6473         0.013986   
     52. D(H  11,C   3,C   0,C   2)      4.2239         0.013986   
     53. D(H  11,C   3,C   0,C   1)   -118.1246         0.013986   
     54. D(H  10,C   3,C   0,H   4)     11.0862         0.013986   
     55. D(H  12,C   3,C   0,C   2)    124.7820         0.013986   
     56. D(H  10,C   3,C   0,C   2)   -110.3372         0.013986   
     57. D(H  10,C   3,C   0,C   1)    127.3142         0.013986   
    -----------------------------------------------------------------

Number of atoms                         .... 13
Number of degrees of freedom            .... 57

Time needed for optimization step       :     3.00 sec

         *************************************************************
         *                GEOMETRY OPTIMIZATION CYCLE   1            *
         *************************************************************
---------------------------------
CARTESIAN COORDINATES (ANGSTROEM)
---------------------------------
  C      0.089792   -0.072880    0.485406
  C      0.198814    1.413693    0.293692
  C     -1.328367   -0.476455    0.097331
  C      1.124415   -0.866223   -0.251913
  H      0.273194   -0.252818    1.575996
  H      1.214570    1.804462    0.446761
  H     -0.557889    1.872880    0.979970
  H     -1.778577   -0.958997    0.979185
  H     -1.231066   -1.130487   -0.782196
  H     -1.949483    0.382719   -0.188123
  H      1.681171   -1.580027    0.408605
  H      0.583725   -1.523462   -0.980085
  H      1.858202   -0.262108   -0.805960

----------------------------
CARTESIAN COORDINATES (A.U.)
----------------------------
  NO LB      ZA    FRAG     MASS         X           Y           Z
   0 C     6.0000    0    12.011    0.169682   -0.137723    0.917284
   1 C     6.0000    0    12.011    0.375704    2.671493    0.554997
   2 C     6.0000    0    12.011   -2.510250   -0.900369    0.183929
   3 C     6.0000    0    12.011    2.124836   -1.636924   -0.476047
   4 H     1.0000    0     1.008    0.516262   -0.477757    2.978201
   5 H     1.0000    0     1.008    2.295205    3.409939    0.844256
   6 H     1.0000    0     1.008   -1.054257    3.539230    1.851875
   7 H     1.0000    0     1.008   -3.361023   -1.812242    1.850391
   8 H     1.0000    0     1.008   -2.326378   -2.136311   -1.478136
   9 H     1.0000    0     1.008   -3.683989    0.723234   -0.355501
  10 H     1.0000    0     1.008    3.176953   -2.985818    0.772152
  11 H     1.0000    0     1.008    1.103080   -2.878926   -1.852092
  12 H     1.0000    0     1.008    3.511493   -0.495312   -1.523044

--------------------------------
INTERNAL COORDINATES (ANGSTROEM)
--------------------------------
 C      0   0   0     0.000000000000     0.00000000     0.00000000
 C      1   0   0     1.502843750564     0.00000000     0.00000000
 C      1   2   0     1.524680273215   107.26760716     0.00000000
 C      1   2   3     1.497824147068   114.26912129   124.97466497
 H      1   2   3     1.120446574160   105.73270650   241.54307834
 H      2   1   3     1.099040846219   113.63974530   185.88404922
 H      2   1   3     1.120013225128   106.16276382    60.86377775
 H      3   1   2     1.101454630559   106.99952253   238.41125403
 H      3   1   2     1.100360434291   106.17234553   115.64184967
 H      3   1   2     1.097929430268   112.65824126   357.74864415
 H      4   1   2     1.120614751945   112.98055545   127.31423544
 H      4   1   2     1.120063944963   107.30025468   241.87542022
 H      4   1   2     1.100166520488   114.69414937     2.43348389

---------------------------
INTERNAL COORDINATES (A.U.)
---------------------------
 C      0   0   0     0.000000000000     0.00000000     0.00000000
 C      1   0   0     2.839963110641     0.00000000     0.00000000
 C      1   2   0     2.881228158169   107.26760716     0.00000000
 C      1   2   3     2.830477434732   114.26912129   124.97466497
 H      1   2   3     2.117337172854   105.73270650   241.54307834
 H      2   1   3     2.076886209347   113.63974530   185.88404922
 H      2   1   3     2.116518261862   106.16276382    60.86377775
 H      3   1   2     2.081447600696   106.99952253   238.41125403
 H      3   1   2     2.079379869413   106.17234553   115.64184967
 H      3   1   2     2.074785937578   112.65824126   357.74864415
 H      4   1   2     2.117654982808   112.98055545   127.31423544
 H      4   1   2     2.116614108459   107.30025468   241.87542022
 H      4   1   2     2.079013425432   114.69414937     2.43348389

---------------------
BASIS SET INFORMATION
---------------------
There are 2 groups of distinct atoms

 Group   1 Type C   : 7s4p1d contracted to 3s2p1d pattern {511/31/1}
 Group   2 Type H   : 4s contracted to 2s pattern {31}

Atom   0C    basis set group =>   1
Atom   1C    basis set group =>   1
Atom   2C    basis set group =>   1
Atom   3C    basis set group =>   1
Atom   4H    basis set group =>   2
Atom   5H    basis set group =>   2
Atom   6H    basis set group =>   2
Atom   7H    basis set group =>   2
Atom   8H    basis set group =>   2
Atom   9H    basis set group =>   2
Atom  10H    basis set group =>   2
Atom  11H    basis set group =>   2
Atom  12H    basis set group =>   2
---------------------------------
AUXILIARY/J BASIS SET INFORMATION
---------------------------------
There are 2 groups of distinct atoms

 Group   1 Type C   : 12s5p4d2f1g contracted to 6s4p3d1f1g pattern {711111/2111/211/2/1}
 Group   2 Type H   : 5s2p1d contracted to 3s1p1d pattern {311/2/1}

Atom   0C    basis set group =>   1
Atom   1C    basis set group =>   1
Atom   2C    basis set group =>   1
Atom   3C    basis set group =>   1
Atom   4H    basis set group =>   2
Atom   5H    basis set group =>   2
Atom   6H    basis set group =>   2
Atom   7H    basis set group =>   2
Atom   8H    basis set group =>   2
Atom   9H    basis set group =>   2
Atom  10H    basis set group =>   2
Atom  11H    basis set group =>   2
Atom  12H    basis set group =>   2
------------------------------------------------------------------------------
                           ORCA GTO INTEGRAL CALCULATION
------------------------------------------------------------------------------

                         BASIS SET STATISTICS AND STARTUP INFO

 # of primitive gaussian shells          ...   84
 # of primitive gaussian functions       ...  132
 # of contracted shells                  ...   42
 # of contracted basis functions         ...   74
 Highest angular momentum                ...    2
 Maximum contraction depth               ...    5
 Integral package used                   ... LIBINT
 Integral threshhold            Thresh   ...  1.000e-12
 Primitive cut-off              TCut     ...  1.000e-14


------------------------------ INTEGRAL EVALUATION ----------------------------


 * One electron integrals 
 Pre-screening matrix                    ... done
 Shell pair data                         ... done (   0.000 sec)

-------------------------------------------------------------------------------
                                 ORCA SCF
-------------------------------------------------------------------------------

------------
SCF SETTINGS
------------
Hamiltonian:
 Density Functional     Method          .... DFT(GTOs)
 Exchange Functional    Exchange        .... B88
   X-Alpha parameter    XAlpha          ....  0.666667
   Becke's b parameter  XBeta           ....  0.004200
 Correlation Functional Correlation     .... LYP
 LDA part of GGA corr.  LDAOpt          .... VWN-5
 Gradients option       PostSCFGGA      .... off
 Hybrid DFT is turned on
   Fraction HF Exchange ScalHFX         ....  0.200000
   Scaling of DF-GGA-X  ScalDFX         ....  0.720000
   Scaling of DF-GGA-C  ScalDFC         ....  0.810000
   Scaling of DF-LDA-C  ScalLDAC        ....  1.000000
   Perturbative correction              ....  0.000000
   Density functional embedding theory  .... OFF
   NL short-range parameter             ....  4.800000


General Settings:
 Integral files         IntName         .... orca4
 Hartree-Fock type      HFTyp           .... UHF
 Total Charge           Charge          ....    0
 Multiplicity           Mult            ....    2
 Number of Electrons    NEL             ....   33
 Basis Dimension        Dim             ....   74
 Nuclear Repulsion      ENuc            ....    127.1304339894 Eh

Convergence Acceleration:
 DIIS                   CNVDIIS         .... on
   Start iteration      DIISMaxIt       ....    12
   Startup error        DIISStart       ....  0.200000
   # of expansion vecs  DIISMaxEq       ....     5
   Bias factor          DIISBfac        ....   1.050
   Max. coefficient     DIISMaxC        ....  10.000
 Newton-Raphson         CNVNR           .... off
 SOSCF                  CNVSOSCF        .... off
 Level Shifting         CNVShift        .... on
   Level shift para.    LevelShift      ....    0.2500
   Turn off err/grad.   ShiftErr        ....    0.0010
 Zerner damping         CNVZerner       .... off
 Static damping         CNVDamp         .... on
   Fraction old density DampFac         ....    0.7000
   Max. Damping (<1)    DampMax         ....    0.9800
   Min. Damping (>=0)   DampMin         ....    0.0000
   Turn off err/grad.   DampErr         ....    0.1000
 Fernandez-Rico         CNVRico         .... off

SCF Procedure:
 Maximum # iterations   MaxIter         ....   500
 SCF integral mode      SCFMode         .... Direct
   Integral package                     .... LIBINT
 Reset frequency        DirectResetFreq ....    20
 Integral Threshold     Thresh          ....  1.000e-12 Eh
 Primitive CutOff       TCut            ....  1.000e-14 Eh

Convergence Tolerance:
 Convergence Check Mode ConvCheckMode   .... Total+1el-Energy
 Convergence forced     ConvForced      .... 0
 Energy Change          TolE            ....  1.000e-09 Eh
 1-El. energy change                    ....  1.000e-06 Eh
 DIIS Error             TolErr          ....  1.000e-08


Diagonalization of the overlap matrix:
Smallest eigenvalue                        ... 1.759e-03
Time for diagonalization                   ...    0.001 sec
Threshold for overlap eigenvalues          ... 1.000e-08
Number of eigenvalues below threshold      ... 0
Time for construction of square roots      ...    2.734 sec
Total time needed                          ...    2.735 sec

-------------------
DFT GRID GENERATION
-------------------

General Integration Accuracy     IntAcc      ...  4.340
Radial Grid Type                 RadialGrid  ... Gauss-Chebyshev
Angular Grid (max. acc.)         AngularGrid ... Lebedev-110
Angular grid pruning method      GridPruning ... 3 (G Style)
Weight generation scheme         WeightScheme... Becke
Basis function cutoff            BFCut       ...    1.0000e-12
Integration weight cutoff        WCut        ...    1.0000e-14
Grids for H and He will be reduced by one unit

# of grid points (after initial pruning)     ...  13770 (   0.0 sec)
# of grid points (after weights+screening)   ...  12843 (   0.0 sec)
nearest neighbour list constructed           ...    0.0 sec
Grid point re-assignment to atoms done       ...    0.0 sec
Grid point division into batches done        ...    0.0 sec
Reduced shell lists constructed in    0.1 sec

Total number of grid points                  ...    12843
Total number of batches                      ...      207
Average number of points per batch           ...       62
Average number of grid points per atom       ...      988
Average number of shells per batch           ...    37.50 (89.29%)
Average number of basis functions per batch  ...    66.87 (90.36%)
Average number of large shells per batch     ...    32.77 (87.38%)
Average number of large basis fcns per batch ...    58.28 (87.16%)
Maximum spatial batch extension              ...  21.29, 20.10, 20.05 au
Average spatial batch extension              ...   3.90,  4.13,  4.07 au

Time for grid setup =    6.801 sec

------------------------------
INITIAL GUESS: MODEL POTENTIAL
------------------------------
Loading Hartree-Fock densities                     ... done
Calculating cut-offs                               ... done
Setting up the integral package                    ... done
Initializing the effective Hamiltonian             ... done
Starting the Coulomb interaction                   ... done (   0.0 sec)
Reading the grid                                   ... done
Mapping shells                                     ... done
Starting the XC term evaluation                    ... done (   0.1 sec)
  promolecular density results
     # of electrons  =     33.003554458
     EX              =    -23.192718994
     EC              =     -1.032842022
     EX+EC           =    -24.225561016
Transforming the Hamiltonian                       ... done (   1.3 sec)
Diagonalizing the Hamiltonian                      ... done (   0.0 sec)
Back transforming the eigenvectors                 ... done (   0.0 sec)
Now organizing SCF variables                       ... done
                      ------------------
                      INITIAL GUESS DONE (   8.3 sec)
                      ------------------
--------------
SCF ITERATIONS
--------------
ITER       Energy         Delta-E        Max-DP      RMS-DP      [F,P]     Damp
               ***  Starting incremental Fock matrix formation  ***
  0   -157.3515062977   0.000000000000 0.04324507  0.00210906  0.1706676 0.7000
  1   -157.4210831151  -0.069576817449 0.02674069  0.00151908  0.0884427 0.7000
                               ***Turning on DIIS***
  2   -157.4492532654  -0.028170150269 0.03742981  0.00255194  0.0327645 0.0000
  3   -157.4877290784  -0.038475812959 0.01791131  0.00106197  0.0486158 0.0000
  4   -157.5001828068  -0.012453728466 0.00600051  0.00032450  0.0095936 0.0000
  5   -157.5008197106  -0.000636903754 0.00165905  0.00011576  0.0024011 0.0000
  6   -157.5008723289  -0.000052618273 0.00156955  0.00007806  0.0008747 0.0000
  7   -157.5008837317  -0.000011402887 0.00043347  0.00001488  0.0002142 0.0000
  8   -157.5008847534  -0.000001021630 0.00014469  0.00000517  0.0000938 0.0000
  9   -157.5008848745  -0.000000121117 0.00006536  0.00000203  0.0000455 0.0000
 10   -157.5008848968  -0.000000022286 0.00002270  0.00000077  0.0000109 0.0000
 11   -157.5008849010  -0.000000004199 0.00001164  0.00000047  0.0000029 0.0000
 12   -157.5008849021  -0.000000001153 0.00000310  0.00000013  0.0000014 0.0000
 13   -157.5008849023  -0.000000000124 0.00000289  0.00000011  0.0000010 0.0000
 14   -157.5008849023  -0.000000000058 0.00000098  0.00000004  0.0000005 0.0000
 15   -157.5008849023  -0.000000000001 0.00000063  0.00000002  0.0000001 0.0000
 16   -157.5008849023   0.000000000002 0.00000008  0.00000000  0.0000001 0.0000
                 **** Energy Check signals convergence ****

 Fermi smearing  (ALPHA): E(HOMO(Eh)) = -0.319346 MUE = -0.085748 gap=   7.584 eV
 Fermi smearing   (BETA): E(HOMO(Eh)) = -0.313220 MUE = -0.187874 gap=   6.807 eV

N_FOD(alpha) =  0.000000
 N_FOD(beta) =  0.000000
       N_FOD =  0.000000

               *****************************************************
               *                     SUCCESS                       *
               *           SCF CONVERGED AFTER  17 CYCLES          *
               *****************************************************

Setting up the final grid:

General Integration Accuracy     IntAcc      ...  4.670
Radial Grid Type                 RadialGrid  ... Gauss-Chebyshev
Angular Grid (max. acc.)         AngularGrid ... Lebedev-302
Angular grid pruning method      GridPruning ... 3 (G Style)
Weight generation scheme         WeightScheme... Becke
Basis function cutoff            BFCut       ...    1.0000e-12
Integration weight cutoff        WCut        ...    1.0000e-14
Grids for H and He will be reduced by one unit

# of grid points (after initial pruning)     ...  55394 (   0.0 sec)
# of grid points (after weights+screening)   ...  51193 (   0.1 sec)
nearest neighbour list constructed           ...    0.0 sec
Grid point re-assignment to atoms done       ...    0.0 sec
Grid point division into batches done        ...    0.1 sec
Reduced shell lists constructed in    0.3 sec

Total number of grid points                  ...    51193
Total number of batches                      ...      806
Average number of points per batch           ...       63
Average number of grid points per atom       ...     3938
Average number of shells per batch           ...    34.99 (83.30%)
Average number of basis functions per batch  ...    62.21 (84.07%)
Average number of large shells per batch     ...    29.95 (85.60%)
Average number of large basis fcns per batch ...    52.81 (84.89%)
Maximum spatial batch extension              ...  19.16, 19.48, 20.59 au
Average spatial batch extension              ...   2.64,  2.65,  2.63 au

Final grid set up in    3.5 sec
Final integration                            ... done (  26.4 sec)
Change in XC energy                          ...     0.000488358
Integrated number of electrons               ...    32.999963661
Previous integrated no of electrons          ...    33.004538244

----------------
TOTAL SCF ENERGY
----------------

Total Energy       :         -157.50039654 Eh           -4285.80368 eV

Components:
Nuclear Repulsion  :          127.13043399 Eh            3459.39498 eV
Electronic Energy  :         -284.63083053 Eh           -7745.19866 eV
One Electron Energy:         -461.76693990 Eh          -12565.31724 eV
Two Electron Energy:          177.13610936 Eh            4820.11859 eV

Virial components:
Potential Energy   :         -313.43972962 Eh           -8529.12866 eV
Kinetic Energy     :          155.93933307 Eh            4243.32498 eV
Virial Ratio       :            2.01001071


DFT components:
N(Alpha)           :       16.999987187639 electrons
N(Beta)            :       15.999976472893 electrons
N(Total)           :       32.999963660532 electrons
E(X)               :      -18.893735204727 Eh       
E(C)               :       -1.221863993395 Eh       
E(XC)              :      -20.115599198122 Eh       
DFET-embed. en.    :        0.000000000000 Eh       

---------------
SCF CONVERGENCE
---------------

  Last Energy change         ...   -9.3507e-12  Tolerance :   1.0000e-09
  Last MAX-Density change    ...    7.7672e-08  Tolerance :   1.0000e-08
  Last RMS-Density change    ...    3.4595e-09  Tolerance :   1.0000e-09
  Last DIIS Error            ...    2.1424e-08  Tolerance :   1.0000e-08

             **** THE GBW FILE WAS UPDATED (orca4.gbw) ****
             **** DENSITY FILE WAS UPDATED (orca4.scfp) ****
             **** ENERGY FILE WAS UPDATED (orca4.en.tmp) ****
             **** THE GBW FILE WAS UPDATED (orca4.gbw) ****
             **** DENSITY FILE WAS UPDATED (orca4.scfp) ****
----------------
ORBITAL ENERGIES
----------------
                 SPIN UP ORBITALS
  NO   OCC          E(Eh)            E(eV) 
   0   1.0000     -10.186509      -277.1890 
   1   1.0000     -10.181805      -277.0610 
   2   1.0000     -10.165621      -276.6206 
   3   1.0000     -10.163946      -276.5750 
   4   1.0000      -0.803720       -21.8703 
   5   1.0000      -0.673550       -18.3282 
   6   1.0000      -0.665463       -18.1082 
   7   1.0000      -0.542923       -14.7737 
   8   1.0000      -0.463851       -12.6220 
   9   1.0000      -0.439933       -11.9712 
  10   1.0000      -0.431896       -11.7525 
  11   1.0000      -0.389838       -10.6080 
  12   1.0000      -0.358098        -9.7443 
  13   1.0000      -0.341665        -9.2972 
  14   1.0000      -0.335245        -9.1225 
  15   1.0000      -0.319346        -8.6898 
  16   1.0000      -0.225093        -6.1251 
  17   0.0000       0.053598         1.4585 
  18   0.0000       0.084112         2.2888 
  19   0.0000       0.107759         2.9323 
  20   0.0000       0.108724         2.9585 
  21   0.0000       0.118169         3.2156 
  22   0.0000       0.131253         3.5716 
  23   0.0000       0.160497         4.3674 
  24   0.0000       0.168261         4.5786 
  25   0.0000       0.177115         4.8196 
  26   0.0000       0.229343         6.2407 
  27   0.0000       0.274093         7.4585 
  28   0.0000       0.294170         8.0048 
  29   0.0000       0.397139        10.8067 
  30   0.0000       0.427750        11.6397 
  31   0.0000       0.446164        12.1407 
  32   0.0000       0.507301        13.8044 
  33   0.0000       0.525497        14.2995 
  34   0.0000       0.549249        14.9458 
  35   0.0000       0.563306        15.3283 
  36   0.0000       0.569357        15.4930 
  37   0.0000       0.612469        16.6661 
  38   0.0000       0.642480        17.4828 
  39   0.0000       0.654995        17.8233 
  40   0.0000       0.672038        18.2871 
  41   0.0000       0.676969        18.4213 
  42   0.0000       0.686189        18.6721 
  43   0.0000       0.704901        19.1813 
  44   0.0000       0.711304        19.3556 
  45   0.0000       0.717970        19.5370 
  46   0.0000       0.726392        19.7661 
  47   0.0000       0.744640        20.2627 
  48   0.0000       0.751815        20.4579 
  49   0.0000       0.760414        20.6919 
  50   0.0000       0.803380        21.8611 
  51   0.0000       0.820302        22.3216 
  52   0.0000       0.974234        26.5103 
  53   0.0000       1.138335        30.9757 
  54   0.0000       1.358294        36.9611 
  55   0.0000       1.412332        38.4315 
  56   0.0000       1.755950        47.7818 
  57   0.0000       1.777193        48.3599 
  58   0.0000       1.800553        48.9955 
  59   0.0000       1.817101        49.4458 
  60   0.0000       1.922767        52.3211 
  61   0.0000       1.930996        52.5451 
  62   0.0000       1.987634        54.0863 
  63   0.0000       2.027061        55.1591 
  64   0.0000       2.054680        55.9107 
  65   0.0000       2.137378        58.1610 
  66   0.0000       2.156676        58.6861 
  67   0.0000       2.165297        58.9207 
  68   0.0000       2.203785        59.9681 
  69   0.0000       2.393465        65.1295 
  70   0.0000       2.441648        66.4406 
  71   0.0000       2.485583        67.6362 
  72   0.0000       2.690206        73.2042 
  73   0.0000       2.719170        73.9924 

                 SPIN DOWN ORBITALS
  NO   OCC          E(Eh)            E(eV) 
   0   1.0000     -10.182280      -277.0739 
   1   1.0000     -10.171501      -276.7806 
   2   1.0000     -10.165396      -276.6145 
   3   1.0000     -10.163443      -276.5613 
   4   1.0000      -0.797401       -21.6984 
   5   1.0000      -0.672200       -18.2915 
   6   1.0000      -0.646514       -17.5926 
   7   1.0000      -0.532167       -14.4810 
   8   1.0000      -0.459204       -12.4956 
   9   1.0000      -0.434440       -11.8217 
  10   1.0000      -0.427377       -11.6295 
  11   1.0000      -0.389548       -10.6001 
  12   1.0000      -0.352978        -9.6050 
  13   1.0000      -0.333726        -9.0811 
  14   1.0000      -0.332352        -9.0438 
  15   1.0000      -0.313220        -8.5232 
  16   0.0000      -0.063072        -1.7163 
  17   0.0000       0.057405         1.5621 
  18   0.0000       0.085548         2.3279 
  19   0.0000       0.108674         2.9572 
  20   0.0000       0.110776         3.0144 
  21   0.0000       0.123834         3.3697 
  22   0.0000       0.135435         3.6854 
  23   0.0000       0.163359         4.4452 
  24   0.0000       0.171434         4.6650 
  25   0.0000       0.178993         4.8706 
  26   0.0000       0.230847         6.2817 
  27   0.0000       0.279967         7.6183 
  28   0.0000       0.299939         8.1617 
  29   0.0000       0.403377        10.9764 
  30   0.0000       0.429550        11.6886 
  31   0.0000       0.462831        12.5943 
  32   0.0000       0.511468        13.9178 
  33   0.0000       0.546312        14.8659 
  34   0.0000       0.555405        15.1133 
  35   0.0000       0.568914        15.4809 
  36   0.0000       0.598450        16.2847 
  37   0.0000       0.618904        16.8412 
  38   0.0000       0.653143        17.7729 
  39   0.0000       0.659343        17.9416 
  40   0.0000       0.677479        18.4351 
  41   0.0000       0.682491        18.5715 
  42   0.0000       0.691706        18.8223 
  43   0.0000       0.707526        19.2528 
  44   0.0000       0.715414        19.4674 
  45   0.0000       0.722800        19.6684 
  46   0.0000       0.732717        19.9382 
  47   0.0000       0.746208        20.3053 
  48   0.0000       0.756032        20.5727 
  49   0.0000       0.762021        20.7356 
  50   0.0000       0.809708        22.0333 
  51   0.0000       0.828626        22.5481 
  52   0.0000       0.974933        26.5293 
  53   0.0000       1.142761        31.0961 
  54   0.0000       1.369322        37.2611 
  55   0.0000       1.421245        38.6740 
  56   0.0000       1.769043        48.1381 
  57   0.0000       1.791527        48.7499 
  58   0.0000       1.817707        49.4623 
  59   0.0000       1.846570        50.2477 
  60   0.0000       1.935008        52.6543 
  61   0.0000       1.945538        52.9408 
  62   0.0000       1.998507        54.3821 
  63   0.0000       2.053088        55.8674 
  64   0.0000       2.077590        56.5341 
  65   0.0000       2.149624        58.4942 
  66   0.0000       2.163013        58.8586 
  67   0.0000       2.171433        59.0877 
  68   0.0000       2.209890        60.1342 
  69   0.0000       2.403634        65.4062 
  70   0.0000       2.451338        66.7043 
  71   0.0000       2.491485        67.7967 
  72   0.0000       2.691866        73.2494 
  73   0.0000       2.726839        74.2010 

                    ********************************
                    * MULLIKEN POPULATION ANALYSIS *
                    ********************************

------------------------------------------
FOD BASED MULLIKEN REDUCED ORBITAL CHARGES
------------------------------------------
  0 C s       :    -0.000000  s :    -0.000000
      pz      :     0.000000  p :     0.000000
      px      :     0.000000
      py      :     0.000000
      dz2     :     0.000000  d :     0.000000
      dxz     :     0.000000
      dyz     :     0.000000
      dx2y2   :     0.000000
      dxy     :     0.000000
  1 C s       :     0.000000  s :     0.000000
      pz      :     0.000000  p :     0.000000
      px      :     0.000000
      py      :     0.000000
      dz2     :    -0.000000  d :     0.000000
      dxz     :     0.000000
      dyz     :     0.000000
      dx2y2   :     0.000000
      dxy     :     0.000000
  2 C s       :    -0.000000  s :    -0.000000
      pz      :     0.000000  p :     0.000000
      px      :     0.000000
      py      :     0.000000
      dz2     :     0.000000  d :     0.000000
      dxz     :     0.000000
      dyz     :     0.000000
      dx2y2   :     0.000000
      dxy     :     0.000000
  3 C s       :    -0.000000  s :    -0.000000
      pz      :     0.000000  p :     0.000000
      px      :     0.000000
      py      :     0.000000
      dz2     :     0.000000  d :     0.000000
      dxz     :     0.000000
      dyz     :     0.000000
      dx2y2   :     0.000000
      dxy     :     0.000000
  4 H s       :     0.000000  s :     0.000000
  5 H s       :     0.000000  s :     0.000000
  6 H s       :     0.000000  s :     0.000000
  7 H s       :     0.000000  s :     0.000000
  8 H s       :     0.000000  s :     0.000000
  9 H s       :     0.000000  s :     0.000000
 10 H s       :     0.000000  s :     0.000000
 11 H s       :     0.000000  s :     0.000000
 12 H s       :     0.000000  s :     0.000000


                     *******************************
                     * LOEWDIN POPULATION ANALYSIS *
                     *******************************

-------------------------------------------
LOEWDIN ATOMIC CHARGES AND SPIN POPULATIONS
-------------------------------------------
   0 C :   -0.176798   -0.002720
   1 C :   -0.207738    0.948909
   2 C :   -0.311208    0.015885
   3 C :   -0.311109    0.006931
   4 H :    0.120314    0.054714
   5 H :    0.102863   -0.009371
   6 H :    0.105385   -0.013810
   7 H :    0.116143    0.000386
   8 H :    0.114626   -0.000108
   9 H :    0.114498    0.000575
  10 H :    0.110478   -0.001014
  11 H :    0.108811   -0.000499
  12 H :    0.113734    0.000122

----------------------------------------------------
LOEWDIN REDUCED ORBITAL CHARGES AND SPIN POPULATIONS
----------------------------------------------------
CHARGE
  0 C s       :     2.870828  s :     2.870828
      pz      :     1.060786  p :     3.193162
      px      :     1.059184
      py      :     1.073192
      dz2     :     0.028174  d :     0.112807
      dxz     :     0.016765
      dyz     :     0.015243
      dx2y2   :     0.029980
      dxy     :     0.022645
  1 C s       :     3.050583  s :     3.050583
      pz      :     0.971871  p :     3.093951
      px      :     1.066841
      py      :     1.055238
      dz2     :     0.006706  d :     0.063204
      dxz     :     0.009669
      dyz     :     0.010350
      dx2y2   :     0.019975
      dxy     :     0.016505
  2 C s       :     2.955433  s :     2.955433
      pz      :     1.105023  p :     3.282611
      px      :     1.066076
      py      :     1.111511
      dz2     :     0.011762  d :     0.073165
      dxz     :     0.013105
      dyz     :     0.018346
      dx2y2   :     0.011309
      dxy     :     0.018643
  3 C s       :     2.953684  s :     2.953684
      pz      :     1.102046  p :     3.282674
      px      :     1.091028
      py      :     1.089599
      dz2     :     0.004460  d :     0.074751
      dxz     :     0.020606
      dyz     :     0.021123
      dx2y2   :     0.006312
      dxy     :     0.022250
  4 H s       :     0.879686  s :     0.879686
  5 H s       :     0.897137  s :     0.897137
  6 H s       :     0.894615  s :     0.894615
  7 H s       :     0.883857  s :     0.883857
  8 H s       :     0.885374  s :     0.885374
  9 H s       :     0.885502  s :     0.885502
 10 H s       :     0.889522  s :     0.889522
 11 H s       :     0.891189  s :     0.891189
 12 H s       :     0.886266  s :     0.886266

SPIN
  0 C s       :    -0.001807  s :    -0.001807
      pz      :    -0.002292  p :    -0.014176
      px      :    -0.001937
      py      :    -0.009947
      dz2     :     0.003692  d :     0.013264
      dxz     :     0.000147
      dyz     :     0.007843
      dx2y2   :     0.001024
      dxy     :     0.000559
  1 C s       :     0.096541  s :     0.096541
      pz      :     0.722695  p :     0.855914
      px      :     0.077330
      py      :     0.055889
      dz2     :    -0.000888  d :    -0.003546
      dxz     :    -0.001216
      dyz     :    -0.000370
      dx2y2   :    -0.001101
      dxy     :     0.000029
  2 C s       :     0.006293  s :     0.006293
      pz      :     0.001173  p :     0.009888
      px      :     0.003655
      py      :     0.005060
      dz2     :     0.000064  d :    -0.000296
      dxz     :    -0.000140
      dyz     :    -0.000083
      dx2y2   :     0.000076
      dxy     :    -0.000213
  3 C s       :     0.002923  s :     0.002923
      pz      :     0.001487  p :     0.004296
      px      :     0.000980
      py      :     0.001829
      dz2     :     0.000139  d :    -0.000288
      dxz     :    -0.000096
      dyz     :    -0.000117
      dx2y2   :    -0.000095
      dxy     :    -0.000119
  4 H s       :     0.054714  s :     0.054714
  5 H s       :    -0.009371  s :    -0.009371
  6 H s       :    -0.013810  s :    -0.013810
  7 H s       :     0.000386  s :     0.000386
  8 H s       :    -0.000108  s :    -0.000108
  9 H s       :     0.000575  s :     0.000575
 10 H s       :    -0.001014  s :    -0.001014
 11 H s       :    -0.000499  s :    -0.000499
 12 H s       :     0.000122  s :     0.000122


                      *****************************
                      * MAYER POPULATION ANALYSIS *
                      *****************************

  NA   - Mulliken gross atomic population
  ZA   - Total nuclear charge
  QA   - Mulliken gross atomic charge
  VA   - Mayer's total valence
  BVA  - Mayer's bonded valence
  FA   - Mayer's free valence

  ATOM       NA         ZA         QA         VA         BVA        FA
  0 C      6.1441     6.0000    -0.1441     4.2173     4.2145     0.0028
  1 C      6.2029     6.0000    -0.2029     3.9078     3.0529     0.8549
  2 C      6.2267     6.0000    -0.2267     3.9420     3.9418     0.0002
  3 C      6.2387     6.0000    -0.2387     3.9487     3.9486     0.0000
  4 H      0.9175     1.0000     0.0825     0.9382     0.9346     0.0036
  5 H      0.9092     1.0000     0.0908     0.9490     0.9481     0.0009
  6 H      0.9087     1.0000     0.0913     0.9478     0.9465     0.0013
  7 H      0.9086     1.0000     0.0914     0.9558     0.9558     0.0000
  8 H      0.9069     1.0000     0.0931     0.9710     0.9710     0.0000
  9 H      0.9031     1.0000     0.0969     0.9700     0.9700     0.0000
 10 H      0.9133     1.0000     0.0867     0.9540     0.9540     0.0000
 11 H      0.9155     1.0000     0.0845     0.9681     0.9681     0.0000
 12 H      0.9047     1.0000     0.0953     0.9656     0.9656     0.0000

  Mayer bond orders larger than 0.100000
B(  0-C ,  1-C ) :   1.1167 B(  0-C ,  2-C ) :   1.0834 B(  0-C ,  3-C ) :   1.0885 
B(  0-C ,  4-H ) :   0.9042 B(  1-C ,  5-H ) :   0.9415 B(  1-C ,  6-H ) :   0.9408 
B(  2-C ,  7-H ) :   0.9573 B(  2-C ,  8-H ) :   0.9558 B(  2-C ,  9-H ) :   0.9620 
B(  3-C , 10-H ) :   0.9584 B(  3-C , 11-H ) :   0.9616 B(  3-C , 12-H ) :   0.9618 


-------
TIMINGS
-------

Total SCF time: 0 days 0 hours 12 min 9 sec 

Total time                  ....     729.604 sec
Sum of individual times     ....     611.982 sec  ( 83.9%)

Fock matrix formation       ....     510.077 sec  ( 69.9%)
  XC integration            ....     271.522 sec  ( 53.2% of F)
    Basis function eval.    ....       0.803 sec  (  0.3% of XC)
    Density eval.           ....       0.581 sec  (  0.2% of XC)
    XC-Functional eval.     ....       0.346 sec  (  0.1% of XC)
    XC-Potential eval.      ....       0.863 sec  (  0.3% of XC)
Diagonalization             ....      13.562 sec  (  1.9%)
Density matrix formation    ....      32.735 sec  (  4.5%)
Population analysis         ....      25.097 sec  (  3.4%)
Initial guess               ....       1.540 sec  (  0.2%)
Orbital Transformation      ....       0.000 sec  (  0.0%)
Orbital Orthonormalization  ....       0.000 sec  (  0.0%)
DIIS solution               ....      18.642 sec  (  2.6%)
Grid generation             ....      10.330 sec  (  1.4%)


-------------------------------------------------------------------------------
                          DFT DISPERSION CORRECTION                            
                                                                               
                              DFTD3 V3.1  Rev 1                                
                          USING Becke-Johnson damping                          
-------------------------------------------------------------------------------
The B3LYP functional is recognized
Active option DFTDOPT                   ...         4   

molecular C6(AA) [au] = 1132.175842 


            DFT-D V3
 parameters
 s6 scaling factor         :     1.0000 
 a1 scaling factor         :     0.3981 
 s8 scaling factor         :     1.9889 
 a2 scaling factor         :     4.4211 
 ad hoc parameters k1-k3   :    16.0000     1.3333    -4.0000 

 Edisp/kcal,au: -9.115416250666  -0.014526338892 
 E6   /kcal   :  -4.522137449 
 E8   /kcal   :  -4.593278801 
 % E8         :  50.390225472 

-------------------------   ----------------
Dispersion correction           -0.014526339
-------------------------   ----------------


-------------------------   --------------------
FINAL SINGLE POINT ENERGY      -157.514922882875
-------------------------   --------------------

------------------------------------------------------------------------------
                         ORCA SCF GRADIENT CALCULATION
------------------------------------------------------------------------------

Gradient of the Kohn-Sham DFT energy:
Kohn-Sham wavefunction type      ... UKS
Hartree-Fock exchange scaling    ...    0.200
Number of operators              ...    2
Number of atoms                  ...   13
Basis set dimensions             ...   74
Integral neglect threshold       ... 1.0e-12
Integral primitive cutoff        ... 1.0e-14

Nuclear repulsion gradient       ... done
One Electron Gradient            ... done
Pre-screening matrix             ... done
Starting the two electron gradient:
Two electron gradient done
Exchange-correlation gradient    ... done
Dispersion correction            ... done

------------------
CARTESIAN GRADIENT
------------------

   1   C   :   -0.000612734   -0.023583915   -0.001595806
   2   C   :   -0.001617389    0.005557370   -0.041235622
   3   C   :    0.002861419    0.007563708   -0.008403437
   4   C   :   -0.012328264    0.035531358    0.013255864
   5   H   :    0.006150408   -0.003216302    0.002756737
   6   H   :   -0.001785010   -0.008438098    0.009311768
   7   H   :   -0.005151341   -0.010155560    0.016896245
   8   H   :    0.009799109    0.008378123    0.007168788
   9   H   :    0.013120018    0.005551044   -0.002600457
  10   H   :    0.002495880   -0.002453084   -0.000563113
  11   H   :    0.002118745   -0.008057574    0.004827164
  12   H   :   -0.013196899   -0.004770476   -0.000189675
  13   H   :   -0.001853942   -0.001906593    0.000371543

Difference to translation invariance:
           :    0.0000000000   -0.0000000000   -0.0000000000

Norm of the cartesian gradient     ...    0.0734028555
RMS gradient                       ...    0.0117538637
MAX gradient                       ...    0.0412356216

-------
TIMINGS
-------

Total SCF gradient time            ...        6.110 sec

One electron gradient       ....       0.026 sec  (  0.4%)
Prescreening matrices       ....       0.024 sec  (  0.4%)
Two electron gradient       ....       1.309 sec  ( 21.4%)
XC gradient                 ....       2.300 sec  ( 37.6%)
------------------------------------------------------------------------------
                         ORCA GEOMETRY RELAXATION STEP
------------------------------------------------------------------------------

Reading the OPT-File                    .... done
Getting information on internals        .... done
Copying old internal coords+grads       .... done
Making the new internal coordinates     .... (new redundants).... done
Validating the new internal coordinates .... (new redundants).... done
Calculating the B-matrix                .... done
Calculating the G,G- and P matrices     .... done
Transforming gradient to internals      .... done
Projecting the internal gradient        .... done
Number of atoms                         ....  13
Number of internal coordinates          ....  57
Current Energy                          ....  -157.514922883 Eh
Current gradient norm                   ....     0.073402855 Eh/bohr
Maximum allowed component of the step   ....  0.300
Current trust radius                    ....  0.300
Evaluating the initial hessian          ....  (Almloef) done
Projecting the Hessian                  .... done
Forming the augmented Hessian           .... done
Diagonalizing the augmented Hessian     .... done
Last element of RFO vector              ....  0.946841061
Lowest eigenvalues of augmented Hessian:
 -0.021475119  0.011643035  0.012619739  0.014016754  0.069715943
Length of the computed step             ....  0.339763184
Warning: the length of the step is outside the trust region - taking restricted step instead
The input lambda is                     ....    -0.021475
   iter:   1  x=   -0.034361  g=    1.974140 f(x)=     0.025439
   iter:   2  x=   -0.037928  g=    1.318348 f(x)=     0.004702
   iter:   3  x=   -0.038111  g=    1.198336 f(x)=     0.000219
   iter:   4  x=   -0.038111  g=    1.192648 f(x)=     0.000001
   iter:   5  x=   -0.038111  g=    1.192634 f(x)=     0.000000
   iter:   6  x=   -0.038111  g=    1.192634 f(x)=     0.000000
The output lambda is                    ....    -0.038111 (6 iterations)
The final length of the internal step   ....  0.300000000
Converting the step to cartesian space:
 Initial RMS(Int)=    0.0397359707
Transforming coordinates:
 Iter   0:  RMS(Cart)=    0.0851432155 RMS(Int)=    0.0403440278
 Iter   1:  RMS(Cart)=    0.0041509849 RMS(Int)=    0.0030408818
 Iter   2:  RMS(Cart)=    0.0003313792 RMS(Int)=    0.0002261636
 Iter   3:  RMS(Cart)=    0.0000498197 RMS(Int)=    0.0000409668
 Iter   4:  RMS(Cart)=    0.0000050347 RMS(Int)=    0.0000036369
 Iter   5:  RMS(Cart)=    0.0000007501 RMS(Int)=    0.0000005694
 Iter   6:  RMS(Cart)=    0.0000000807 RMS(Int)=    0.0000000663
done
Storing new coordinates                 .... done

                                .--------------------.
          ----------------------|Geometry convergence|-------------------------
          Item                value                   Tolerance       Converged
          ---------------------------------------------------------------------
          RMS gradient        0.0102669684            0.0001000000      NO
          MAX gradient        0.0374574011            0.0003000000      NO
          RMS step            0.0397359707            0.0020000000      NO
          MAX step            0.1053407007            0.0040000000      NO
          ........................................................
          Max(Bonds)      0.0432      Max(Angles)    5.94
          Max(Dihed)        6.04      Max(Improp)    0.00
          ---------------------------------------------------------------------

The optimization has not yet converged - more geometry cycles are needed


    ---------------------------------------------------------------------------
                         Redundant Internal Coordinates
                            (Angstroem and degrees)

        Definition                    Value    dE/dq     Step     New-Value
    ----------------------------------------------------------------------------
     1. B(C   1,C   0)                1.5028 -0.011592  0.0136    1.5164   
     2. B(C   2,C   0)                1.5247 -0.030222  0.0382    1.5628   
     3. B(C   3,C   0)                1.4978 -0.037457  0.0432    1.5411   
     4. B(H   4,C   0)                1.1204  0.004206 -0.0062    1.1143   
     5. B(H   5,C   1)                1.0990 -0.003354  0.0046    1.1036   
     6. B(H   6,C   1)                1.1200  0.009667 -0.0142    1.1058   
     7. B(H   7,C   2)                1.1015 -0.001935  0.0027    1.1041   
     8. B(H   8,C   2)                1.1004 -0.000061  0.0001    1.1004   
     9. B(H   9,C   2)                1.0979 -0.003186  0.0043    1.1023   
    10. B(H  10,C   3)                1.1206  0.009033 -0.0133    1.1073   
    11. B(H  11,C   3)                1.1201  0.009292 -0.0136    1.1064   
    12. B(H  12,C   3)                1.1002 -0.002472  0.0034    1.1036   
    13. A(C   1,C   0,H   4)          105.73  0.000753   -0.97    104.76   
    14. A(C   2,C   0,H   4)          110.95  0.008054   -2.11    108.84   
    15. A(C   1,C   0,C   2)          107.27 -0.008371    2.14    109.41   
    16. A(C   1,C   0,C   3)          114.27  0.009936   -1.30    112.97   
    17. A(C   2,C   0,C   3)          112.15 -0.006695    1.86    114.01   
    18. A(C   3,C   0,H   4)          106.32 -0.002645    0.04    106.36   
    19. A(H   5,C   1,H   6)          113.16  0.010299    1.20    114.36   
    20. A(C   0,C   1,H   6)          106.16 -0.027679    5.94    112.11   
    21. A(C   0,C   1,H   5)          113.64 -0.013523    3.50    117.14   
    22. A(H   7,C   2,H   9)          108.65  0.006163   -0.97    107.68   
    23. A(C   0,C   2,H   9)          112.66  0.004864   -0.62    112.04   
    24. A(H   7,C   2,H   8)          114.56  0.016817   -3.05    111.51   
    25. A(C   0,C   2,H   8)          106.17 -0.017302    2.82    108.99   
    26. A(H   8,C   2,H   9)          107.90  0.005772   -0.77    107.13   
    27. A(C   0,C   2,H   7)          107.00 -0.016417    2.62    109.62   
    28. A(H  11,C   3,H  12)          108.47  0.006283   -0.99    107.47   
    29. A(H  10,C   3,H  12)          108.37  0.000215   -0.71    107.66   
    30. A(C   0,C   3,H  12)          114.69  0.004591   -1.02    113.67   
    31. A(H  10,C   3,H  11)          104.43  0.003152    0.24    104.68   
    32. A(C   0,C   3,H  11)          107.30 -0.015390    2.85    110.15   
    33. A(C   0,C   3,H  10)          112.98  0.001127   -0.23    112.75   
    34. D(H   6,C   1,C   0,C   3)   -174.16  0.004703   -2.87   -177.04   
    35. D(H   6,C   1,C   0,H   4)    -57.59  0.007324   -4.16    -61.75   
    36. D(H   6,C   1,C   0,C   2)     60.86  0.012920   -6.04     54.83   
    37. D(H   5,C   1,C   0,H   4)     67.43 -0.008884    4.08     71.50   
    38. D(H   5,C   1,C   0,C   2)   -174.12 -0.003288    2.20   -171.92   
    39. D(H   5,C   1,C   0,C   3)    -49.14 -0.011505    5.36    -43.78   
    40. D(H   7,C   2,C   0,C   1)   -121.59  0.001679   -0.19   -121.78   
    41. D(H   9,C   2,C   0,C   1)     -2.25  0.001434   -0.05     -2.30   
    42. D(H   8,C   2,C   0,H   4)   -129.33  0.000636   -0.61   -129.94   
    43. D(H   8,C   2,C   0,C   1)    115.64  0.000289    0.43    116.07   
    44. D(H   7,C   2,C   0,H   4)     -6.56  0.002027   -1.24     -7.80   
    45. D(H   7,C   2,C   0,C   3)    112.17 -0.000308   -1.38    110.79   
    46. D(H   9,C   2,C   0,C   3)   -128.50 -0.000553   -1.23   -129.73   
    47. D(H   9,C   2,C   0,H   4)    112.77  0.001782   -1.09    111.68   
    48. D(H   8,C   2,C   0,C   3)    -10.60 -0.001699   -0.75    -11.35   
    49. D(H  12,C   3,C   0,H   4)   -113.79 -0.002273    1.27   -112.53   
    50. D(H  12,C   3,C   0,C   1)      2.43  0.002390   -0.61      1.82   
    51. D(H  11,C   3,C   0,H   4)    125.65 -0.002110    1.13    126.78   
    52. D(H  11,C   3,C   0,C   2)      4.22 -0.006328    2.60      6.82   
    53. D(H  11,C   3,C   0,C   1)   -118.12  0.002553   -0.75   -118.87   
    54. D(H  10,C   3,C   0,H   4)     11.09  0.002834   -0.77     10.31   
    55. D(H  12,C   3,C   0,C   2)    124.78 -0.006491    2.73    127.52   
    56. D(H  10,C   3,C   0,C   2)   -110.34 -0.001385    0.69   -109.64   
    57. D(H  10,C   3,C   0,C   1)    127.31  0.007497   -2.65    124.66   
    ----------------------------------------------------------------------------

Time needed for optimization step       :     3.58 sec

         *************************************************************
         *                GEOMETRY OPTIMIZATION CYCLE   2            *
         *************************************************************
---------------------------------
CARTESIAN COORDINATES (ANGSTROEM)
---------------------------------
  C      0.078833   -0.084403    0.487985
  C      0.233848    1.416271    0.334479
  C     -1.382292   -0.496415    0.116716
  C      1.164604   -0.879212   -0.263158
  H      0.242754   -0.277398    1.573098
  H      1.254895    1.824148    0.429911
  H     -0.523870    1.969018    0.920303
  H     -1.852993   -1.005696    0.975883
  H     -1.355903   -1.146193   -0.771017
  H     -2.005951    0.376033   -0.138033
  H      1.716109   -1.577826    0.395604
  H      0.700389   -1.526274   -1.031270
  H      1.908078   -0.241757   -0.771834

----------------------------
CARTESIAN COORDINATES (A.U.)
----------------------------
  NO LB      ZA    FRAG     MASS         X           Y           Z
   0 C     6.0000    0    12.011    0.148973   -0.159498    0.922158
   1 C     6.0000    0    12.011    0.441909    2.676365    0.632075
   2 C     6.0000    0    12.011   -2.612153   -0.938089    0.220562
   3 C     6.0000    0    12.011    2.200782   -1.661470   -0.497296
   4 H     1.0000    0     1.008    0.458738   -0.524206    2.972725
   5 H     1.0000    0     1.008    2.371408    3.447141    0.812415
   6 H     1.0000    0     1.008   -0.989971    3.720904    1.739121
   7 H     1.0000    0     1.008   -3.501649   -1.900489    1.844151
   8 H     1.0000    0     1.008   -2.562285   -2.165990   -1.457011
   9 H     1.0000    0     1.008   -3.790699    0.710599   -0.260844
  10 H     1.0000    0     1.008    3.242977   -2.981659    0.747584
  11 H     1.0000    0     1.008    1.323544   -2.884240   -1.948819
  12 H     1.0000    0     1.008    3.605744   -0.456854   -1.458554

--------------------------------
INTERNAL COORDINATES (ANGSTROEM)
--------------------------------
 C      0   0   0     0.000000000000     0.00000000     0.00000000
 C      1   0   0     1.516448390328     0.00000000     0.00000000
 C      1   2   0     1.562843779762   109.41507495     0.00000000
 C      1   2   3     1.541050009296   112.89418879   128.11331141
 H      1   2   3     1.114265589958   104.77021872   243.42660462
 H      2   1   3     1.103634223768   116.84327854   188.23717324
 H      2   1   3     1.105827429106   111.77606178    54.68459233
 H      3   1   2     1.104125551499   109.59133444   238.26651367
 H      3   1   2     1.100444188915   108.95869497   116.08606315
 H      3   1   2     1.102276635816   112.03716762   357.72893782
 H      4   1   2     1.107333488650   112.72611141   124.66987658
 H      4   1   2     1.106427078685   110.14520637   241.14583373
 H      4   1   2     1.103564442019   113.66701437     1.82474032

---------------------------
INTERNAL COORDINATES (A.U.)
---------------------------
 C      0   0   0     0.000000000000     0.00000000     0.00000000
 C      1   0   0     2.865672153945     0.00000000     0.00000000
 C      1   2   0     2.953346733852   109.41507495     0.00000000
 C      1   2   3     2.912162476247   112.89418879   128.11331141
 H      1   2   3     2.105656805472   104.77021872   243.42660462
 H      2   1   3     2.085566434944   116.84327854   188.23717324
 H      2   1   3     2.089710992388   111.77606178    54.68459233
 H      3   1   2     2.086494909798   109.59133444   238.26651367
 H      3   1   2     2.079538142715   108.95869497   116.08606315
 H      3   1   2     2.083000965513   112.03716762   357.72893782
 H      4   1   2     2.092557032468   112.72611141   124.66987658
 H      4   1   2     2.090844165870   110.14520637   241.14583373
 H      4   1   2     2.085434566549   113.66701437     1.82474032


Diagonalization of the overlap matrix:
Smallest eigenvalue                        ... 2.132e-03
Time for diagonalization                   ...    0.001 sec
Threshold for overlap eigenvalues          ... 1.000e-08
Number of eigenvalues below threshold      ... 0
Time for construction of square roots      ...    6.605 sec
Total time needed                          ...    6.606 sec

-------------------
DFT GRID GENERATION
-------------------

General Integration Accuracy     IntAcc      ...  4.340
Radial Grid Type                 RadialGrid  ... Gauss-Chebyshev
Angular Grid (max. acc.)         AngularGrid ... Lebedev-110
Angular grid pruning method      GridPruning ... 3 (G Style)
Weight generation scheme         WeightScheme... Becke
Basis function cutoff            BFCut       ...    1.0000e-12
Integration weight cutoff        WCut        ...    1.0000e-14
Grids for H and He will be reduced by one unit

# of grid points (after initial pruning)     ...  13770 (   0.0 sec)
# of grid points (after weights+screening)   ...  12873 (   0.0 sec)
nearest neighbour list constructed           ...    0.0 sec
Grid point re-assignment to atoms done       ...    0.0 sec
Grid point division into batches done        ...    0.0 sec
Reduced shell lists constructed in    0.1 sec

Total number of grid points                  ...    12873
Total number of batches                      ...      207
Average number of points per batch           ...       62
Average number of grid points per atom       ...      990
Average number of shells per batch           ...    37.30 (88.80%)
Average number of basis functions per batch  ...    66.42 (89.76%)
Average number of large shells per batch     ...    32.41 (86.89%)
Average number of large basis fcns per batch ...    57.52 (86.60%)
Maximum spatial batch extension              ...  20.31, 19.99, 21.02 au
Average spatial batch extension              ...   4.00,  4.14,  4.15 au

Time for grid setup =    5.161 sec

--------------
SCF ITERATIONS
--------------
ITER       Energy         Delta-E        Max-DP      RMS-DP      [F,P]     Damp
               ***  Starting incremental Fock matrix formation  ***
  0   -157.5107236071   0.000000000000 0.00362869  0.00019263  0.0143268 0.7000
  1   -157.5116213374  -0.000897730235 0.00347219  0.00018037  0.0113679 0.7000
                               ***Turning on DIIS***
  2   -157.5123183443  -0.000697006984 0.00991983  0.00048235  0.0086567 0.0000
  3   -157.5140830474  -0.001764703087 0.00355418  0.00009563  0.0016663 0.0000
  4   -157.5141188366  -0.000035789215 0.00344493  0.00008563  0.0009392 0.0000
  5   -157.5141284423  -0.000009605668 0.00050498  0.00001776  0.0005404 0.0000
  6   -157.5141297704  -0.000001328119 0.00034379  0.00000927  0.0001484 0.0000
  7   -157.5141299735  -0.000000203086 0.00004023  0.00000173  0.0000265 0.0000
  8   -157.5141299823  -0.000000008802 0.00001396  0.00000074  0.0000224 0.0000
  9   -157.5141299851  -0.000000002762 0.00000459  0.00000021  0.0000047 0.0000
                 **** Energy Check signals convergence ****

 Fermi smearing  (ALPHA): E(HOMO(Eh)) = -0.327072 MUE = -0.078915 gap=   7.422 eV
 Fermi smearing   (BETA): E(HOMO(Eh)) = -0.320798 MUE = -0.186945 gap=   7.245 eV

N_FOD(alpha) =  0.000000
 N_FOD(beta) =  0.000000
       N_FOD =  0.000000

               *****************************************************
               *                     SUCCESS                       *
               *           SCF CONVERGED AFTER  10 CYCLES          *
               *****************************************************

Setting up the final grid:

General Integration Accuracy     IntAcc      ...  4.670
Radial Grid Type                 RadialGrid  ... Gauss-Chebyshev
Angular Grid (max. acc.)         AngularGrid ... Lebedev-302
Angular grid pruning method      GridPruning ... 3 (G Style)
Weight generation scheme         WeightScheme... Becke
Basis function cutoff            BFCut       ...    1.0000e-12
Integration weight cutoff        WCut        ...    1.0000e-14
Grids for H and He will be reduced by one unit

# of grid points (after initial pruning)     ...  55394 (   0.0 sec)
# of grid points (after weights+screening)   ...  51322 (   0.1 sec)
nearest neighbour list constructed           ...    0.0 sec
Grid point re-assignment to atoms done       ...    0.0 sec
Grid point division into batches done        ...    0.1 sec
Reduced shell lists constructed in    0.3 sec

Total number of grid points                  ...    51322
Total number of batches                      ...      809
Average number of points per batch           ...       63
Average number of grid points per atom       ...     3948
Average number of shells per batch           ...    34.84 (82.95%)
Average number of basis functions per batch  ...    61.92 (83.68%)
Average number of large shells per batch     ...    29.56 (84.84%)
Average number of large basis fcns per batch ...    51.94 (83.88%)
Maximum spatial batch extension              ...  20.61, 19.49, 22.04 au
Average spatial batch extension              ...   2.65,  2.66,  2.64 au

Final grid set up in    5.6 sec
Final integration                            ... done (  26.3 sec)
Change in XC energy                          ...     0.000579336
Integrated number of electrons               ...    33.000031745
Previous integrated no of electrons          ...    33.005023923
Total Energy       :         -157.51355065 Eh           -4286.16162 eV
  Last Energy change         ...   -2.1308e-10  Tolerance :   1.0000e-09
  Last MAX-Density change    ...    1.3858e-06  Tolerance :   1.0000e-08
             **** THE GBW FILE WAS UPDATED (orca4.gbw) ****
             **** DENSITY FILE WAS UPDATED (orca4.scfp) ****
             **** ENERGY FILE WAS UPDATED (orca4.en.tmp) ****
             **** THE GBW FILE WAS UPDATED (orca4.gbw) ****
             **** DENSITY FILE WAS UPDATED (orca4.scfp) ****
Total SCF time: 0 days 0 hours 9 min 19 sec 


-------------------------------------------------------------------------------
                          DFT DISPERSION CORRECTION                            
                                                                               
                              DFTD3 V3.1  Rev 1                                
                          USING Becke-Johnson damping                          
-------------------------------------------------------------------------------
-------------------------   ----------------
Dispersion correction           -0.014196568
-------------------------   ----------------


-------------------------   --------------------
FINAL SINGLE POINT ENERGY      -157.527747217765
-------------------------   --------------------

------------------------------------------------------------------------------
                         ORCA SCF GRADIENT CALCULATION
------------------------------------------------------------------------------

Gradient of the Kohn-Sham DFT energy:
Kohn-Sham wavefunction type      ... UKS
Hartree-Fock exchange scaling    ...    0.200
Number of operators              ...    2
Number of atoms                  ...   13
Basis set dimensions             ...   74
Integral neglect threshold       ... 1.0e-12
Integral primitive cutoff        ... 1.0e-14

Nuclear repulsion gradient       ... done
One Electron Gradient            ... done
Pre-screening matrix             ... done
Starting the two electron gradient:
Two electron gradient done
Exchange-correlation gradient    ... done
Dispersion correction            ... done

------------------
CARTESIAN GRADIENT
------------------

   1   C   :    0.000451216   -0.015282595    0.006285337
   2   C   :   -0.002449334    0.009675833   -0.022658763
   3   C   :   -0.009085214    0.000195229   -0.006451838
   4   C   :    0.000443741    0.012171450    0.003950899
   5   H   :    0.003654305   -0.000216577    0.000368944
   6   H   :    0.001405079   -0.001486082    0.006586328
   7   H   :   -0.000592110   -0.005132720    0.008806632
   8   H   :    0.003207104    0.004337637    0.004459842
   9   H   :    0.005066204    0.003855963   -0.000888068
  10   H   :   -0.000286977   -0.001358346   -0.000921972
  11   H   :    0.000040894   -0.003035161   -0.000966088
  12   H   :   -0.002412102   -0.002079831    0.002396011
  13   H   :    0.000557194   -0.001644801   -0.000967264

Difference to translation invariance:
           :    0.0000000000    0.0000000000   -0.0000000000

Norm of the cartesian gradient     ...    0.0382477480
RMS gradient                       ...    0.0061245413
MAX gradient                       ...    0.0226587629

-------
TIMINGS
-------

Total SCF gradient time            ...        4.000 sec

One electron gradient       ....       0.026 sec  (  0.6%)
Prescreening matrices       ....       0.024 sec  (  0.6%)
Two electron gradient       ....       1.376 sec  ( 34.4%)
XC gradient                 ....       2.452 sec  ( 61.3%)
------------------------------------------------------------------------------
                         ORCA GEOMETRY RELAXATION STEP
------------------------------------------------------------------------------

Reading the OPT-File                    .... done
Getting information on internals        .... done
Copying old internal coords+grads       .... done
Making the new internal coordinates     .... (new redundants).... done
Validating the new internal coordinates .... (new redundants).... done
Calculating the B-matrix                .... done
Calculating the G,G- and P matrices     .... done
Transforming gradient to internals      .... done
Projecting the internal gradient        .... done
Number of atoms                         ....  13
Number of internal coordinates          ....  57
Current Energy                          ....  -157.527747218 Eh
Current gradient norm                   ....     0.038247748 Eh/bohr
Maximum allowed component of the step   ....  0.300
Current trust radius                    ....  0.300
Updating the Hessian (BFGS)             .... done
Forming the augmented Hessian           .... done
Diagonalizing the augmented Hessian     .... done
Last element of RFO vector              ....  0.966741464
Lowest eigenvalues of augmented Hessian:
 -0.005660841  0.011654167  0.012626728  0.014039338  0.065994186
Length of the computed step             ....  0.264554319
The final length of the internal step   ....  0.264554319
Converting the step to cartesian space:
 Initial RMS(Int)=    0.0350410756
Transforming coordinates:
 Iter   0:  RMS(Cart)=    0.0516950467 RMS(Int)=    0.8202349283
 Iter   1:  RMS(Cart)=    0.0029633234 RMS(Int)=    0.0024500956
 Iter   2:  RMS(Cart)=    0.0002616180 RMS(Int)=    0.0001830395
 Iter   3:  RMS(Cart)=    0.0000349276 RMS(Int)=    0.0000305163
 Iter   4:  RMS(Cart)=    0.0000034644 RMS(Int)=    0.0000024892
 Iter   5:  RMS(Cart)=    0.0000004754 RMS(Int)=    0.0000003962
 Iter   6:  RMS(Cart)=    0.0000000491 RMS(Int)=    0.0000000391
done
Storing new coordinates                 .... done

                                .--------------------.
          ----------------------|Geometry convergence|-------------------------
          Item                value                   Tolerance       Converged
          ---------------------------------------------------------------------
          Energy change      -0.0128243349            0.0000050000      NO
          RMS gradient        0.0035252158            0.0001000000      NO
          MAX gradient        0.0125188115            0.0003000000      NO
          RMS step            0.0350410756            0.0020000000      NO
          MAX step            0.0966230675            0.0040000000      NO
          ........................................................
          Max(Bonds)      0.0135      Max(Angles)    5.10
          Max(Dihed)        5.54      Max(Improp)    0.00
          ---------------------------------------------------------------------

The optimization has not yet converged - more geometry cycles are needed


    ---------------------------------------------------------------------------
                         Redundant Internal Coordinates
                            (Angstroem and degrees)

        Definition                    Value    dE/dq     Step     New-Value
    ----------------------------------------------------------------------------
     1. B(C   1,C   0)                1.5164  0.003600 -0.0057    1.5107   
     2. B(C   2,C   0)                1.5628  0.000074  0.0022    1.5651   
     3. B(C   3,C   0)                1.5411 -0.005908  0.0135    1.5546   
     4. B(H   4,C   0)                1.1143  0.000934 -0.0025    1.1117   
     5. B(H   5,C   1)                1.1036  0.001321 -0.0026    1.1010   
     6. B(H   6,C   1)                1.1058  0.002501 -0.0066    1.0992   
     7. B(H   7,C   2)                1.1041  0.000105 -0.0001    1.1040   
     8. B(H   8,C   2)                1.1004 -0.001443  0.0031    1.1036   
     9. B(H   9,C   2)                1.1023 -0.000699  0.0018    1.1040   
    10. B(H  10,C   3)                1.1073  0.001362 -0.0039    1.1034   
    11. B(H  11,C   3)                1.1064  0.000567 -0.0021    1.1044   
    12. B(H  12,C   3)                1.1036 -0.000132  0.0005    1.1040   
    13. A(C   1,C   0,H   4)          104.77  0.000267    0.17    104.94   
    14. A(C   2,C   0,H   4)          108.86  0.003178   -1.65    107.21   
    15. A(C   1,C   0,C   2)          109.42 -0.005267    1.81    111.23   
    16. A(C   1,C   0,C   3)          112.89  0.003169   -0.71    112.18   
    17. A(C   2,C   0,C   3)          114.01  0.001268   -0.30    113.71   
    18. A(C   3,C   0,H   4)          106.36 -0.002469    0.56    106.92   
    19. A(H   5,C   1,H   6)          113.79  0.004427    2.01    115.80   
    20. A(C   0,C   1,H   6)          111.78 -0.012519    5.10    116.87   
    21. A(C   0,C   1,H   5)          116.84 -0.003054    2.38    119.22   
    22. A(H   7,C   2,H   9)          107.68  0.001360   -0.23    107.45   
    23. A(C   0,C   2,H   9)          112.04  0.003672   -0.78    111.26   
    24. A(H   7,C   2,H   8)          111.44  0.007904   -2.67    108.77   
    25. A(C   0,C   2,H   8)          108.96 -0.006553    1.80    110.76   
    26. A(H   8,C   2,H   9)          107.13  0.001000   -0.07    107.05   
    27. A(C   0,C   2,H   7)          109.59 -0.006849    1.85    111.44   
    28. A(H  11,C   3,H  12)          107.49  0.001045   -0.48    107.00   
    29. A(H  10,C   3,H  12)          107.64 -0.001488   -0.21    107.44   
    30. A(C   0,C   3,H  12)          113.67  0.003716   -1.36    112.31   
    31. A(H  10,C   3,H  11)          104.66 -0.001196    1.22    105.87   
    32. A(C   0,C   3,H  11)          110.15 -0.004470    1.58    111.73   
    33. A(C   0,C   3,H  10)          112.73  0.002018   -0.52    112.21   
    34. D(H   6,C   1,C   0,C   3)   -177.20  0.005517   -5.02   -182.23   
    35. D(H   6,C   1,C   0,H   4)    -61.89  0.004290   -4.58    -66.47   
    36. D(H   6,C   1,C   0,C   2)     54.68  0.005636   -5.54     49.15   
    37. D(H   5,C   1,C   0,H   4)     71.66 -0.005613    4.14     75.81   
    38. D(H   5,C   1,C   0,C   2)   -171.76 -0.004267    3.18   -168.58   
    39. D(H   5,C   1,C   0,C   3)    -43.65 -0.004386    3.70    -39.95   
    40. D(H   7,C   2,C   0,C   1)   -121.73  0.001570   -1.94   -123.67   
    41. D(H   9,C   2,C   0,C   1)     -2.27  0.001055   -1.48     -3.75   
    42. D(H   8,C   2,C   0,H   4)   -129.96 -0.000469   -0.53   -130.49   
    43. D(H   8,C   2,C   0,C   1)    116.09  0.000300   -0.87    115.22   
    44. D(H   7,C   2,C   0,H   4)     -7.78  0.000801   -1.61     -9.38   
    45. D(H   7,C   2,C   0,C   3)    110.78  0.000684   -2.23    108.54   
    46. D(H   9,C   2,C   0,C   3)   -129.76  0.000169   -1.77   -131.53   
    47. D(H   9,C   2,C   0,H   4)    111.68  0.000285   -1.14    110.54   
    48. D(H   8,C   2,C   0,C   3)    -11.40 -0.000586   -1.16    -12.56   
    49. D(H  12,C   3,C   0,H   4)   -112.53 -0.000092    0.87   -111.67   
    50. D(H  12,C   3,C   0,C   1)      1.82  0.000382    1.06      2.89   
    51. D(H  11,C   3,C   0,H   4)    126.79 -0.000741    1.22    128.01   
    52. D(H  11,C   3,C   0,C   2)      6.82 -0.003770    3.07      9.89   
    53. D(H  11,C   3,C   0,C   1)   -118.85 -0.000266    1.41   -117.44   
    54. D(H  10,C   3,C   0,H   4)     10.31  0.002412   -0.97      9.34   
    55. D(H  12,C   3,C   0,C   2)    127.50 -0.003121    2.72    130.21   
    56. D(H  10,C   3,C   0,C   2)   -109.66 -0.000617    0.88   -108.78   
    57. D(H  10,C   3,C   0,C   1)    124.67  0.002887   -0.77    123.90   
[...]

             **** THE GBW FILE WAS UPDATED (orca4.gbw) ****
             **** DENSITY FILE WAS UPDATED (orca4.scfp) ****
             **** ENERGY FILE WAS UPDATED (orca4.en.tmp) ****
             **** THE GBW FILE WAS UPDATED (orca4.gbw) ****
             **** DENSITY FILE WAS UPDATED (orca4.scfp) ****
----------------
ORBITAL ENERGIES
----------------
                 SPIN UP ORBITALS
  NO   OCC          E(Eh)            E(eV) 
   0   1.0000     -10.188438      -277.2415 
   1   1.0000     -10.180142      -277.0157 
   2   1.0000     -10.168465      -276.6980 
   3   1.0000     -10.168262      -276.6925 
   4   1.0000      -0.793678       -21.5971 
   5   1.0000      -0.671728       -18.2787 
   6   1.0000      -0.661474       -17.9996 
   7   1.0000      -0.548966       -14.9381 
   8   1.0000      -0.456062       -12.4101 
   9   1.0000      -0.439241       -11.9524 
  10   1.0000      -0.430510       -11.7148 
  11   1.0000      -0.382576       -10.4104 
  12   1.0000      -0.367653       -10.0043 
  13   1.0000      -0.347147        -9.4463 
  14   1.0000      -0.338270        -9.2048 
  15   1.0000      -0.332691        -9.0530 
  16   1.0000      -0.201952        -5.4954 
  17   0.0000       0.058670         1.5965 
  18   0.0000       0.105731         2.8771 
  19   0.0000       0.107244         2.9183 
  20   0.0000       0.108197         2.9442 
  21   0.0000       0.123084         3.3493 
  22   0.0000       0.129190         3.5154 
  23   0.0000       0.146454         3.9852 
  24   0.0000       0.167030         4.5451 
  25   0.0000       0.179501         4.8845 
  26   0.0000       0.209291         5.6951 
  27   0.0000       0.255271         6.9463 
  28   0.0000       0.258967         7.0468 
  29   0.0000       0.403804        10.9881 
  30   0.0000       0.423182        11.5154 
  31   0.0000       0.424598        11.5539 
  32   0.0000       0.444331        12.0909 
  33   0.0000       0.481980        13.1153 
  34   0.0000       0.497738        13.5441 
  35   0.0000       0.557983        15.1835 
  36   0.0000       0.608709        16.5638 
  37   0.0000       0.647574        17.6214 
  38   0.0000       0.654035        17.7972 
  39   0.0000       0.657111        17.8809 
  40   0.0000       0.663589        18.0572 
  41   0.0000       0.671599        18.2751 
  42   0.0000       0.692788        18.8517 
  43   0.0000       0.703013        19.1300 
  44   0.0000       0.707381        19.2488 
  45   0.0000       0.719461        19.5775 
  46   0.0000       0.731161        19.8959 
  47   0.0000       0.749878        20.4052 
  48   0.0000       0.757400        20.6099 
  49   0.0000       0.762600        20.7514 
  50   0.0000       0.875801        23.8318 
  51   0.0000       0.937361        25.5069 
  52   0.0000       1.052259        28.6334 
  53   0.0000       1.066781        29.0286 
  54   0.0000       1.396536        38.0017 
  55   0.0000       1.489136        40.5215 
  56   0.0000       1.679724        45.7076 
  57   0.0000       1.744981        47.4833 
  58   0.0000       1.766323        48.0641 
  59   0.0000       1.854943        50.4756 
  60   0.0000       1.914872        52.1063 
  61   0.0000       1.940575        52.8057 
  62   0.0000       1.954072        53.1730 
  63   0.0000       1.990735        54.1707 
  64   0.0000       2.060034        56.0564 
  65   0.0000       2.091877        56.9229 
  66   0.0000       2.145557        58.3836 
  67   0.0000       2.154098        58.6160 
  68   0.0000       2.161553        58.8188 
  69   0.0000       2.427204        66.0476 
  70   0.0000       2.442795        66.4718 
  71   0.0000       2.466325        67.1121 
  72   0.0000       2.675541        72.8052 
  73   0.0000       2.690819        73.2209 

                 SPIN DOWN ORBITALS
  NO   OCC          E(Eh)            E(eV) 
   0   1.0000     -10.189402      -277.2677 
   1   1.0000     -10.168134      -276.6890 
   2   1.0000     -10.167756      -276.6787 
   3   1.0000     -10.165662      -276.6217 
   4   1.0000      -0.786678       -21.4066 
   5   1.0000      -0.671101       -18.2616 
   6   1.0000      -0.638025       -17.3616 
   7   1.0000      -0.538843       -14.6627 
   8   1.0000      -0.450038       -12.2462 
   9   1.0000      -0.433537       -11.7971 
  10   1.0000      -0.428030       -11.6473 
  11   1.0000      -0.382041       -10.3959 
  12   1.0000      -0.365052        -9.9336 
  13   1.0000      -0.340553        -9.2669 
  14   1.0000      -0.331576        -9.0227 
  15   1.0000      -0.330215        -8.9856 
  16   0.0000      -0.045882        -1.2485 
  17   0.0000       0.061258         1.6669 
  18   0.0000       0.107499         2.9252 
  19   0.0000       0.108099         2.9415 
  20   0.0000       0.115239         3.1358 
  21   0.0000       0.126821         3.4510 
  22   0.0000       0.131331         3.5737 
  23   0.0000       0.148126         4.0307 
  24   0.0000       0.167094         4.5469 
  25   0.0000       0.180823         4.9204 
  26   0.0000       0.212316         5.7774 
  27   0.0000       0.255882         6.9629 
  28   0.0000       0.266904         7.2628 
  29   0.0000       0.405659        11.0385 
  30   0.0000       0.425647        11.5824 
  31   0.0000       0.431426        11.7397 
  32   0.0000       0.445032        12.1099 
  33   0.0000       0.500859        13.6291 
  34   0.0000       0.538430        14.6514 
  35   0.0000       0.584470        15.9042 
  36   0.0000       0.619528        16.8582 
  37   0.0000       0.649573        17.6758 
  38   0.0000       0.657136        17.8816 
  39   0.0000       0.661067        17.9885 
  40   0.0000       0.667686        18.1687 
  41   0.0000       0.681783        18.5523 
  42   0.0000       0.693729        18.8773 
  43   0.0000       0.706480        19.2243 
  44   0.0000       0.710322        19.3288 
  45   0.0000       0.719499        19.5786 
  46   0.0000       0.733964        19.9722 
  47   0.0000       0.752769        20.4839 
  48   0.0000       0.763793        20.7839 
  49   0.0000       0.768915        20.9233 
  50   0.0000       0.883560        24.0429 
  51   0.0000       0.940648        25.5963 
  52   0.0000       1.057045        28.7637 
  53   0.0000       1.070268        29.1235 
  54   0.0000       1.410545        38.3829 
  55   0.0000       1.489907        40.5424 
  56   0.0000       1.729353        47.0581 
  57   0.0000       1.747893        47.5626 
  58   0.0000       1.779077        48.4111 
  59   0.0000       1.869776        50.8792 
  60   0.0000       1.927065        52.4381 
  61   0.0000       1.952891        53.1409 
  62   0.0000       1.979565        53.8667 
  63   0.0000       2.013552        54.7915 
  64   0.0000       2.084860        56.7319 
  65   0.0000       2.100879        57.1678 
  66   0.0000       2.146412        58.4068 
  67   0.0000       2.159881        58.7733 
  68   0.0000       2.166407        58.9509 
  69   0.0000       2.436941        66.3125 
  70   0.0000       2.453677        66.7680 
  71   0.0000       2.469422        67.1964 
  72   0.0000       2.682250        72.9877 
  73   0.0000       2.692083        73.2553 

                    ********************************
                    * MULLIKEN POPULATION ANALYSIS *
                    ********************************

------------------------------------------
FOD BASED MULLIKEN REDUCED ORBITAL CHARGES
------------------------------------------
  0 C s       :    -0.000000  s :    -0.000000
      pz      :     0.000000  p :     0.000000
      px      :     0.000000
      py      :     0.000000
      dz2     :     0.000000  d :     0.000000
      dxz     :     0.000000
      dyz     :     0.000000
      dx2y2   :     0.000000
      dxy     :     0.000000
  1 C s       :    -0.000000  s :    -0.000000
      pz      :     0.000000  p :     0.000000
      px      :     0.000000
      py      :     0.000000
      dz2     :     0.000000  d :     0.000000
      dxz     :     0.000000
      dyz     :     0.000000
      dx2y2   :     0.000000
      dxy     :     0.000000
  2 C s       :    -0.000000  s :    -0.000000
      pz      :     0.000000  p :     0.000000
      px      :     0.000000
      py      :     0.000000
      dz2     :     0.000000  d :     0.000000
      dxz     :     0.000000
      dyz     :     0.000000
      dx2y2   :     0.000000
      dxy     :     0.000000
  3 C s       :    -0.000000  s :    -0.000000
      pz      :     0.000000  p :     0.000000
      px      :     0.000000
      py      :     0.000000
      dz2     :     0.000000  d :     0.000000
      dxz     :     0.000000
      dyz     :     0.000000
      dx2y2   :     0.000000
      dxy     :     0.000000
  4 H s       :     0.000000  s :     0.000000
  5 H s       :     0.000000  s :     0.000000
  6 H s       :     0.000000  s :     0.000000
  7 H s       :     0.000000  s :     0.000000
  8 H s       :     0.000000  s :     0.000000
  9 H s       :     0.000000  s :     0.000000
 10 H s       :     0.000000  s :     0.000000
 11 H s       :     0.000000  s :     0.000000
 12 H s       :     0.000000  s :     0.000000


                     *******************************
                     * LOEWDIN POPULATION ANALYSIS *
                     *******************************

-------------------------------------------
LOEWDIN ATOMIC CHARGES AND SPIN POPULATIONS
-------------------------------------------
   0 C :   -0.159984   -0.013612
   1 C :   -0.224434    0.978923
   2 C :   -0.307616    0.017184
   3 C :   -0.308492    0.011629
   4 H :    0.116622    0.053822
   5 H :    0.112196   -0.025692
   6 H :    0.111817   -0.025566
   7 H :    0.108958    0.001313
   8 H :    0.110400    0.001327
   9 H :    0.110296   -0.000429
  10 H :    0.109251    0.000270
  11 H :    0.111116    0.001222
  12 H :    0.109870   -0.000391

----------------------------------------------------
LOEWDIN REDUCED ORBITAL CHARGES AND SPIN POPULATIONS
----------------------------------------------------
CHARGE
  0 C s       :     2.876078  s :     2.876078
      pz      :     1.062325  p :     3.172134
      px      :     1.050014
      py      :     1.059795
      dz2     :     0.031005  d :     0.111772
      dxz     :     0.012685
      dyz     :     0.016031
      dx2y2   :     0.028451
      dxy     :     0.023600
  1 C s       :     3.017801  s :     3.017801
      pz      :     1.013336  p :     3.149632
      px      :     1.081290
      py      :     1.055005
      dz2     :     0.006290  d :     0.057001
      dxz     :     0.002271
      dyz     :     0.007409
      dx2y2   :     0.016254
      dxy     :     0.024777
  2 C s       :     2.958325  s :     2.958325
      pz      :     1.114944  p :     3.276644
      px      :     1.061201
      py      :     1.100499
      dz2     :     0.020040  d :     0.072647
      dxz     :     0.012403
      dyz     :     0.007598
      dx2y2   :     0.017788
      dxy     :     0.014817
  3 C s       :     2.957633  s :     2.957633
      pz      :     1.108077  p :     3.278201
      px      :     1.081290
      py      :     1.088834
      dz2     :     0.024668  d :     0.072658
      dxz     :     0.007031
      dyz     :     0.007856
      dx2y2   :     0.021569
      dxy     :     0.011534
  4 H s       :     0.883378  s :     0.883378
  5 H s       :     0.887804  s :     0.887804
  6 H s       :     0.888183  s :     0.888183
  7 H s       :     0.891042  s :     0.891042
  8 H s       :     0.889600  s :     0.889600
  9 H s       :     0.889704  s :     0.889704
 10 H s       :     0.890749  s :     0.890749
 11 H s       :     0.888884  s :     0.888884
 12 H s       :     0.890130  s :     0.890130

SPIN
  0 C s       :    -0.004827  s :    -0.004827
      pz      :    -0.007516  p :    -0.026254
      px      :    -0.003129
      py      :    -0.015608
      dz2     :     0.006738  d :     0.017468
      dxz     :     0.000139
      dyz     :     0.008926
      dx2y2   :     0.000723
      dxy     :     0.000942
  1 C s       :     0.039767  s :     0.039767
      pz      :     0.822776  p :     0.943016
      px      :     0.077066
      py      :     0.043173
      dz2     :    -0.001784  d :    -0.003860
      dxz     :    -0.000516
      dyz     :    -0.000193
      dx2y2   :    -0.000660
      dxy     :    -0.000707
  2 C s       :     0.006020  s :     0.006020
      pz      :     0.000813  p :     0.011260
      px      :     0.009226
      py      :     0.001221
      dz2     :    -0.000042  d :    -0.000096
      dxz     :    -0.000065
      dyz     :     0.000111
      dx2y2   :     0.000018
      dxy     :    -0.000118
  3 C s       :     0.003875  s :     0.003875
      pz      :     0.000432  p :     0.007906
      px      :     0.005744
      py      :     0.001730
      dz2     :    -0.000025  d :    -0.000153
      dxz     :    -0.000024
      dyz     :    -0.000002
      dx2y2   :    -0.000041
      dxy     :    -0.000061
  4 H s       :     0.053822  s :     0.053822
  5 H s       :    -0.025692  s :    -0.025692
  6 H s       :    -0.025566  s :    -0.025566
  7 H s       :     0.001313  s :     0.001313
  8 H s       :     0.001327  s :     0.001327
  9 H s       :    -0.000429  s :    -0.000429
 10 H s       :     0.000270  s :     0.000270
 11 H s       :     0.001222  s :     0.001222
 12 H s       :    -0.000391  s :    -0.000391


                      *****************************
                      * MAYER POPULATION ANALYSIS *
                      *****************************

  NA   - Mulliken gross atomic population
  ZA   - Total nuclear charge
  QA   - Mulliken gross atomic charge
  VA   - Mayer's total valence
  BVA  - Mayer's bonded valence
  FA   - Mayer's free valence

  ATOM       NA         ZA         QA         VA         BVA        FA
  0 C      6.0960     6.0000    -0.0960     4.1900     4.1870     0.0030
  1 C      6.2411     6.0000    -0.2411     3.8834     2.9991     0.8842
  2 C      6.2394     6.0000    -0.2394     3.9528     3.9526     0.0002
  3 C      6.2445     6.0000    -0.2445     3.9582     3.9581     0.0001
  4 H      0.9195     1.0000     0.0805     0.9340     0.9304     0.0037
  5 H      0.8984     1.0000     0.1016     0.9537     0.9508     0.0028
  6 H      0.8982     1.0000     0.1018     0.9531     0.9502     0.0028
  7 H      0.9143     1.0000     0.0857     0.9583     0.9583     0.0000
  8 H      0.9106     1.0000     0.0894     0.9630     0.9630     0.0000
  9 H      0.9086     1.0000     0.0914     0.9556     0.9556     0.0000
 10 H      0.9134     1.0000     0.0866     0.9578     0.9578     0.0000
 11 H      0.9070     1.0000     0.0930     0.9612     0.9611     0.0000
 12 H      0.9090     1.0000     0.0910     0.9548     0.9548     0.0000

  Mayer bond orders larger than 0.100000
B(  0-C ,  1-C ) :   1.0795 B(  0-C ,  2-C ) :   1.0894 B(  0-C ,  3-C ) :   1.0916 
B(  0-C ,  4-H ) :   0.8979 B(  1-C ,  5-H ) :   0.9415 B(  1-C ,  6-H ) :   0.9404 
B(  2-C ,  7-H ) :   0.9563 B(  2-C ,  8-H ) :   0.9595 B(  2-C ,  9-H ) :   0.9572 
B(  3-C , 10-H ) :   0.9572 B(  3-C , 11-H ) :   0.9590 B(  3-C , 12-H ) :   0.9579 


-------
TIMINGS
-------

Total SCF time: 0 days 0 hours 2 min 24 sec 

Total time                  ....     144.861 sec
Sum of individual times     ....     124.438 sec  ( 85.9%)

Fock matrix formation       ....     104.891 sec  ( 72.4%)
  XC integration            ....      41.729 sec  ( 39.8% of F)
    Basis function eval.    ....       0.508 sec  (  1.2% of XC)
    Density eval.           ....       0.377 sec  (  0.9% of XC)
    XC-Functional eval.     ....       0.218 sec  (  0.5% of XC)
    XC-Potential eval.      ....       0.518 sec  (  1.2% of XC)
Diagonalization             ....       0.783 sec  (  0.5%)
Density matrix formation    ....       7.021 sec  (  4.8%)
Population analysis         ....       5.011 sec  (  3.5%)
Initial guess               ....       0.003 sec  (  0.0%)
Orbital Transformation      ....       0.000 sec  (  0.0%)
Orbital Orthonormalization  ....       0.001 sec  (  0.0%)
DIIS solution               ....       4.451 sec  (  3.1%)
Grid generation             ....       2.279 sec  (  1.6%)


-------------------------------------------------------------------------------
                          DFT DISPERSION CORRECTION                            
                                                                               
                              DFTD3 V3.1  Rev 1                                
                          USING Becke-Johnson damping                          
-------------------------------------------------------------------------------
The B3LYP functional is recognized
Active option DFTDOPT                   ...         4   

molecular C6(AA) [au] = 1132.642450 


            DFT-D V3
 parameters
 s6 scaling factor         :     1.0000 
 a1 scaling factor         :     0.3981 
 s8 scaling factor         :     1.9889 
 a2 scaling factor         :     4.4211 
 ad hoc parameters k1-k3   :    16.0000     1.3333    -4.0000 

 Edisp/kcal,au: -9.019647653372  -0.014373721934 
 E6   /kcal   :  -4.464957455 
 E8   /kcal   :  -4.554690199 
 % E8         :  50.497429321 

-------------------------   ----------------
Dispersion correction           -0.014373722
-------------------------   ----------------


-------------------------   --------------------
FINAL SINGLE POINT ENERGY      -157.545311502251
-------------------------   --------------------

                                *** OPTIMIZATION RUN DONE ***

                            ***************************************
                            *     ORCA property calculations      *
                            ***************************************

                                    ---------------------
                                    Active property flags
                                    ---------------------
   (+) Dipole Moment


------------------------------------------------------------------------------
                       ORCA ELECTRIC PROPERTIES CALCULATION
------------------------------------------------------------------------------

Dipole Moment Calculation                       ... on
Quadrupole Moment Calculation                   ... off
Polarizability Calculation                      ... off
GBWName                                         ... orca4.gbw
Electron density file                           ... orca4.scfp
The origin for moment calculation is the CENTER OF MASS  = ( 0.056215, -0.076402  0.372244)

-------------
DIPOLE MOMENT
-------------
                                X             Y             Z
Electronic contribution:      0.21865       1.09350       0.40352
Nuclear contribution   :     -0.21325      -1.15123      -0.30940
                        -----------------------------------------
Total Dipole Moment    :      0.00540      -0.05773       0.09412
                        -----------------------------------------
Magnitude (a.u.)       :      0.11055
Magnitude (Debye)      :      0.28098



--------------------
Rotational spectrum 
--------------------
 
Rotational constants in cm-1:     0.278876     0.261902     0.152948 
Rotational constants in MHz :  8360.493848  7851.637871  4585.265717 

 Dipole components along the rotational axes: 
x,y,z [a.u.] :     0.000969    -0.051725     0.097692 
x,y,z [Debye]:     0.002464    -0.131475     0.248314 

 

Timings for individual modules:

Sum of individual times         ...     8350.479 sec (= 139.175 min)
GTO integral calculation        ...      212.092 sec (=   3.535 min)   2.5 %
SCF iterations                  ...     7926.323 sec (= 132.105 min)  94.9 %
SCF Gradient evaluation         ...      122.592 sec (=   2.043 min)   1.5 %
Geometry relaxation             ...       89.472 sec (=   1.491 min)   1.1 %
                             ****ORCA TERMINATED NORMALLY****
TOTAL RUN TIME: 0 days 2 hours 25 minutes 2 seconds 860 msec
