
                                 *****************
                                 * O   R   C   A *
                                 *****************

           --- An Ab Initio, DFT and Semiempirical electronic structure package ---

                  #######################################################
                  #                        -***-                        #
                  #          Department of theory and spectroscopy      #
                  #               Directorship: Frank Neese             #
                  #        Max Planck Institute fuer Kohlenforschung    #
                  #                Kaiser Wilhelm Platz 1               #
                  #                 D-45470 Muelheim/Ruhr               #
                  #                      Germany                        #
                  #                                                     #
                  #                  All rights reserved                #
                  #                        -***-                        #
                  #######################################################


                         Program Version 4.2.1 -  RELEASE  -


 With contributions from (in alphabetic order):
   Daniel Aravena         : Magnetic Suceptibility
   Michael Atanasov       : Ab Initio Ligand Field Theory (pilot matlab implementation)
   Alexander A. Auer      : GIAO ZORA, VPT2
   Ute Becker             : Parallelization
   Giovanni Bistoni       : ED, misc. LED, open-shell LED, HFLD
   Martin Brehm           : Molecular dynamics
   Dmytro Bykov           : SCF Hessian
   Vijay G. Chilkuri      : MRCI spin determinant printing, contributions to CSF-ICE
   Dipayan Datta          : RHF DLPNO-CCSD density
   Achintya Kumar Dutta   : EOM-CC, STEOM-CC
   Dmitry Ganyushin       : Spin-Orbit,Spin-Spin,Magnetic field MRCI
   Miquel Garcia          : C-PCM Hessian, Gaussian charge scheme
   Yang Guo               : DLPNO-NEVPT2, CIM, IAO-localization
   Andreas Hansen         : Spin unrestricted coupled pair/coupled cluster methods
   Benjamin Helmich-Paris : CASSCF linear response (MC-RPA)
   Lee Huntington         : MR-EOM, pCC
   Robert Izsak           : Overlap fitted RIJCOSX, COSX-SCS-MP3, EOM
   Christian Kollmar      : KDIIS, OOCD, Brueckner-CCSD(T), CCSD density
   Simone Kossmann        : Meta GGA functionals, TD-DFT gradient, OOMP2, MP2 Hessian
   Martin Krupicka        : AUTO-CI
   Lucas Lang             : DCDCAS
   Dagmar Lenk            : GEPOL surface, SMD
   Dimitrios Liakos       : Extrapolation schemes; Compound Job, initial MDCI parallelization
   Dimitrios Manganas     : Further ROCIS development; embedding schemes
   Dimitrios Pantazis     : SARC Basis sets
   Taras Petrenko         : DFT Hessian,TD-DFT gradient, ASA, ECA, R-Raman, ABS, FL, XAS/XES, NRVS
   Peter Pinski           : DLPNO-MP2, DLPNO-MP2 Gradient
   Christoph Reimann      : Effective Core Potentials
   Marius Retegan         : Local ZFS, SOC
   Christoph Riplinger    : Optimizer, TS searches, QM/MM, DLPNO-CCSD(T), (RO)-DLPNO pert. Triples
   Tobias Risthaus        : Range-separated hybrids, TD-DFT gradient, RPA, STAB
   Michael Roemelt        : Original ROCIS implementation
   Masaaki Saitow         : Open-shell DLPNO-CCSD energy and density
   Barbara Sandhoefer     : DKH picture change effects
   Avijit Sen             : IP-ROCIS
   Kantharuban Sivalingam : CASSCF convergence, NEVPT2, FIC-MRCI
   Bernardo de Souza      : ESD, SOC TD-DFT
   Georgi Stoychev        : AutoAux, RI-MP2 NMR
   Willem Van den Heuvel  : Paramagnetic NMR
   Boris Wezisla          : Elementary symmetry handling
   Frank Wennmohs         : Technical directorship


 We gratefully acknowledge several colleagues who have allowed us to
 interface, adapt or use parts of their codes:
   Stefan Grimme, W. Hujo, H. Kruse,             : VdW corrections, initial TS optimization,
                  C. Bannwarth                     DFT functionals, gCP, sTDA/sTD-DF
   Ed Valeev, F. Pavosevic, A. Kumar             : LibInt (2-el integral package), F12 methods
   Garnet Chan, S. Sharma, J. Yang, R. Olivares  : DMRG
   Ulf Ekstrom                                   : XCFun DFT Library
   Mihaly Kallay                                 : mrcc  (arbitrary order and MRCC methods)
   Andreas Klamt, Michael Diedenhofen            : otool_cosmo (COSMO solvation model)
   Jiri Pittner, Ondrej Demel                    : Mk-CCSD
   Frank Weinhold                                : gennbo (NPA and NBO analysis)
   Christopher J. Cramer and Donald G. Truhlar   : smd solvation model
   Lars Goerigk                                  : TD-DFT with DH, B97 family of functionals
   V. Asgeirsson, H. Jonsson                     : NEB implementation
   FAccTs GmbH                                   : IRC, NEB, NEB-TS, Multilevel, MM, QM/MM, CI optimization
   S Lehtola, MJT Oliveira, MAL Marques          : LibXC Library


 Your calculation uses the libint2 library for the computation of 2-el integrals
 For citations please refer to: http://libint.valeyev.net

 Your ORCA version has been built with support for libXC version: 4.2.3
 For citations please refer to: https://tddft.org/programs/libxc/

 This ORCA versions uses:
   CBLAS   interface :  Fast vector & matrix operations
   LAPACKE interface :  Fast linear algebra routines
   SCALAPACK package :  Parallel linear algebra routines


Your calculation utilizes the atom-pairwise dispersion correction
with the Becke-Johnson damping scheme (D3BJ)
Cite in your paper:
S.Grimme, S.Ehrlich, L.Goerigk, J Comput Chem, (2011), 32, 1456–1465 
S.Grimme, J.Antony, S.Ehrlich and H.Krieg, J.Chem.Phys., 132, (2010), 154104 
   

----- Orbital basis set information -----
Your calculation utilizes the basis: def2-SV(P)
   F. Weigend and R. Ahlrichs, Phys. Chem. Chem. Phys. 7, 3297 (2005).

----- AuxJ basis set information -----
Your calculation utilizes the auxiliary basis: def2/J
   F. Weigend, Phys. Chem. Chem. Phys. 8, 1057 (2006).

================================================================================
                                        WARNINGS
                       Please study these warnings very carefully!
================================================================================


WARNING: Geometry Optimization
  ===> : Switching off AutoStart
         For restart on a previous wavefunction, please use MOREAD

INFO   : the flag for use of LIBINT has been found!

================================================================================
                                       INPUT FILE
================================================================================
NAME = orca3.inp
|  1> ! UKS B3LYP def2-SV(P) def2/J D3BJ Opt
|  2> %scf Convergence VeryTight
|  3> SmearTemp 2000
|  4> maxiter 500
|  5> end
|  6> *xyz 0 2
|  7> C -0.044128 0.02008 -0.380368
|  8> C -1.443047 -0.029511 0.172956
|  9> C 0.738679 -1.246519 -0.124827
| 10> C 0.718642 1.242971 0.033497
| 11> H -0.163992 0.087142 -1.492734
| 12> H -2.011716 -0.774524 -0.434053
| 13> H -1.8965 0.952185 -0.017688
| 14> H 1.598711 -1.290119 -0.840584
| 15> H 0.1194 -2.127687 -0.36519
| 16> H 1.123733 -1.250622 0.905975
| 17> H 0.002011 2.009751 0.420483
| 18> H 1.23108 1.718745 -0.839732
| 19> H 1.534468 1.034087 0.768642
| 20> *
| 21> 
| 22>                          ****END OF INPUT****
================================================================================

                       *****************************
                       * Geometry Optimization Run *
                       *****************************

Geometry optimization settings:
Update method            Update   .... BFGS
Choice of coordinates    CoordSys .... Z-matrix Internals
Initial Hessian          InHess   .... Almoef's Model

Convergence Tolerances:
Energy Change            TolE     ....  5.0000e-06 Eh
Max. Gradient            TolMAXG  ....  3.0000e-04 Eh/bohr
RMS Gradient             TolRMSG  ....  1.0000e-04 Eh/bohr
Max. Displacement        TolMAXD  ....  4.0000e-03 bohr
RMS Displacement         TolRMSD  ....  2.0000e-03 bohr
Strict Convergence                ....  False
------------------------------------------------------------------------------
                        ORCA OPTIMIZATION COORDINATE SETUP
------------------------------------------------------------------------------

The optimization will be done in new redundant internal coordinates
Making redundant internal coordinates   ...  (new redundants) done
Evaluating the initial hessian          ...  (Almloef) done
Evaluating the coordinates              ...  done
Calculating the B-matrix                .... done
Calculating the G-matrix                .... done
Diagonalizing the G-matrix              .... done
The first mode is                       ....   24
The number of degrees of freedom        ....   33

    -----------------------------------------------------------------
                    Redundant Internal Coordinates


    -----------------------------------------------------------------
         Definition                    Initial Value    Approx d2E/dq
    -----------------------------------------------------------------
      1. B(C   1,C   0)                  1.5052         0.409221   
      2. B(C   2,C   0)                  1.5107         0.400952   
      3. B(C   3,C   0)                  1.4995         0.417834   
      4. B(H   4,C   0)                  1.1208         0.321560   
      5. B(H   5,C   1)                  1.1166         0.326526   
      6. B(H   6,C   1)                  1.0980         0.349620   
      7. B(H   7,C   2)                  1.1198         0.322806   
      8. B(H   8,C   2)                  1.1035         0.342662   
      9. B(H   9,C   2)                  1.1004         0.346627   
     10. B(H  10,C   3)                  1.1186         0.324184   
     11. B(H  11,C   3)                  1.1187         0.324070   
     12. B(H  12,C   3)                  1.1179         0.325051   
     13. A(C   1,C   0,H   4)          105.5107         0.323147   
     14. A(C   2,C   0,H   4)          105.8697         0.322067   
     15. A(C   1,C   0,C   2)          113.0648         0.373589   
     16. A(C   1,C   0,C   3)          113.4638         0.376258   
     17. A(C   2,C   0,C   3)          111.9296         0.374934   
     18. A(C   3,C   0,H   4)          106.2317         0.324253   
     19. A(H   5,C   1,H   6)          106.9661         0.285102   
     20. A(C   0,C   1,H   6)          106.8896         0.327623   
     21. A(C   0,C   1,H   5)          107.1851         0.323960   
     22. A(H   7,C   2,H   9)          109.2615         0.284214   
     23. A(C   0,C   2,H   9)          110.0535         0.326061   
     24. A(H   7,C   2,H   8)          105.1116         0.283706   
     25. A(C   0,C   2,H   8)          109.9889         0.325445   
     26. A(H   8,C   2,H   9)          113.4184         0.286869   
     27. A(C   0,C   2,H   7)          108.8139         0.322272   
     28. A(H  11,C   3,H  12)          104.9811         0.281565   
     29. A(H  10,C   3,H  12)          111.6000         0.281580   
     30. A(C   0,C   3,H  12)          113.6000         0.324829   
     31. A(H  10,C   3,H  11)          105.7818         0.281449   
     32. A(C   0,C   3,H  11)          111.3710         0.324668   
     33. A(C   0,C   3,H  10)          109.1853         0.324686   
     34. D(H   6,C   1,C   0,C   3)     48.0457         0.012405   
     35. D(H   6,C   1,C   0,H   4)    -67.8478         0.012405   
     36. D(H   6,C   1,C   0,C   2)    176.8992         0.012405   
     37. D(H   5,C   1,C   0,H   4)     46.5527         0.012405   
     38. D(H   5,C   1,C   0,C   2)    -68.7003         0.012405   
     39. D(H   5,C   1,C   0,C   3)    162.4461         0.012405   
     40. D(H   7,C   2,C   0,C   1)    160.5440         0.012753   
     41. D(H   9,C   2,C   0,C   1)    -79.7627         0.012753   
     42. D(H   8,C   2,C   0,H   4)    -69.1394         0.012753   
     43. D(H   8,C   2,C   0,C   1)     45.8987         0.012753   
     44. D(H   7,C   2,C   0,H   4)     45.5059         0.012753   
     45. D(H   7,C   2,C   0,C   3)    -69.8169         0.012753   
     46. D(H   9,C   2,C   0,C   3)     49.8764         0.012753   
     47. D(H   9,C   2,C   0,H   4)    165.1992         0.012753   
     48. D(H   8,C   2,C   0,C   3)    175.5378         0.012753   
     49. D(H  12,C   3,C   0,H   4)   -135.7280         0.013816   
     50. D(H  12,C   3,C   0,C   1)    108.8048         0.013816   
     51. D(H  11,C   3,C   0,H   4)    -17.4414         0.013816   
     52. D(H  11,C   3,C   0,C   2)     97.6603         0.013816   
     53. D(H  11,C   3,C   0,C   1)   -132.9085         0.013816   
     54. D(H  10,C   3,C   0,H   4)     99.0067         0.013816   
     55. D(H  12,C   3,C   0,C   2)    -20.6264         0.013816   
     56. D(H  10,C   3,C   0,C   2)   -145.8916         0.013816   
     57. D(H  10,C   3,C   0,C   1)    -16.4604         0.013816   
    -----------------------------------------------------------------

Number of atoms                         .... 13
Number of degrees of freedom            .... 57

         *************************************************************
         *                GEOMETRY OPTIMIZATION CYCLE   1            *
         *************************************************************
---------------------------------
CARTESIAN COORDINATES (ANGSTROEM)
---------------------------------
  C     -0.044128    0.020080   -0.380368
  C     -1.443047   -0.029511    0.172956
  C      0.738679   -1.246519   -0.124827
  C      0.718642    1.242971    0.033497
  H     -0.163992    0.087142   -1.492734
  H     -2.011716   -0.774524   -0.434053
  H     -1.896500    0.952185   -0.017688
  H      1.598711   -1.290119   -0.840584
  H      0.119400   -2.127687   -0.365190
  H      1.123733   -1.250622    0.905975
  H      0.002011    2.009751    0.420483
  H      1.231080    1.718745   -0.839732
  H      1.534468    1.034087    0.768642

----------------------------
CARTESIAN COORDINATES (A.U.)
----------------------------
  NO LB      ZA    FRAG     MASS         X           Y           Z
   0 C     6.0000    0    12.011   -0.083390    0.037946   -0.718791
   1 C     6.0000    0    12.011   -2.726964   -0.055768    0.326839
   2 C     6.0000    0    12.011    1.395901   -2.355580   -0.235889
   3 C     6.0000    0    12.011    1.358037    2.348875    0.063300
   4 H     1.0000    0     1.008   -0.309900    0.164675   -2.820858
   5 H     1.0000    0     1.008   -3.801592   -1.463638   -0.820241
   6 H     1.0000    0     1.008   -3.583866    1.799369   -0.033425
   7 H     1.0000    0     1.008    3.021126   -2.437972   -1.588474
   8 H     1.0000    0     1.008    0.225633   -4.020746   -0.690109
   9 H     1.0000    0     1.008    2.123548   -2.363333    1.712045
  10 H     1.0000    0     1.008    0.003800    3.797879    0.794598
  11 H     1.0000    0     1.008    2.326404    3.247957   -1.586864
  12 H     1.0000    0     1.008    2.899724    1.954141    1.452523

--------------------------------
INTERNAL COORDINATES (ANGSTROEM)
--------------------------------
 C      0   0   0     0.000000000000     0.00000000     0.00000000
 C      1   0   0     1.505191378137     0.00000000     0.00000000
 C      1   2   0     1.510748499497   113.06476644     0.00000000
 C      1   2   3     1.499521493346   113.46382882   231.14643803
 H      1   2   3     1.120813458295   105.51067757   115.25297199
 H      2   1   3     1.116641718642   107.18505032   291.29970490
 H      2   1   3     1.098039978489   106.88955778   176.89922066
 H      3   1   2     1.119760726259   108.81388654   160.54398084
 H      3   1   2     1.103511620163   109.98889786    45.89867422
 H      3   1   2     1.100380016507   110.05350641   280.23727375
 H      4   1   2     1.118601681903   109.18529920   343.53957464
 H      4   1   2     1.118696781689   111.37097629   227.09146971
 H      4   1   2     1.117874214193   113.60001419   108.80481635

---------------------------
INTERNAL COORDINATES (A.U.)
---------------------------
 C      0   0   0     0.000000000000     0.00000000     0.00000000
 C      1   0   0     2.844399483818     0.00000000     0.00000000
 C      1   2   0     2.854900921281   113.06476644     0.00000000
 C      1   2   3     2.833684954352   113.46382882   231.14643803
 H      1   2   3     2.118030483391   105.51067757   115.25297199
 H      2   1   3     2.110147037944   107.18505032   291.29970490
 H      2   1   3     2.074994843442   106.88955778   176.89922066
 H      3   1   2     2.116041108151   108.81388654   160.54398084
 H      3   1   2     2.085334747707   109.98889786    45.89867422
 H      3   1   2     2.079416874439   110.05350641   280.23727375
 H      4   1   2     2.113850831741   109.18529920   343.53957464
 H      4   1   2     2.114030544291   111.37097629   227.09146971
 H      4   1   2     2.112476116997   113.60001419   108.80481635

---------------------
BASIS SET INFORMATION
---------------------
There are 2 groups of distinct atoms

 Group   1 Type C   : 7s4p1d contracted to 3s2p1d pattern {511/31/1}
 Group   2 Type H   : 4s contracted to 2s pattern {31}

Atom   0C    basis set group =>   1
Atom   1C    basis set group =>   1
Atom   2C    basis set group =>   1
Atom   3C    basis set group =>   1
Atom   4H    basis set group =>   2
Atom   5H    basis set group =>   2
Atom   6H    basis set group =>   2
Atom   7H    basis set group =>   2
Atom   8H    basis set group =>   2
Atom   9H    basis set group =>   2
Atom  10H    basis set group =>   2
Atom  11H    basis set group =>   2
Atom  12H    basis set group =>   2
---------------------------------
AUXILIARY/J BASIS SET INFORMATION
---------------------------------
There are 2 groups of distinct atoms

 Group   1 Type C   : 12s5p4d2f1g contracted to 6s4p3d1f1g pattern {711111/2111/211/2/1}
 Group   2 Type H   : 5s2p1d contracted to 3s1p1d pattern {311/2/1}

Atom   0C    basis set group =>   1
Atom   1C    basis set group =>   1
Atom   2C    basis set group =>   1
Atom   3C    basis set group =>   1
Atom   4H    basis set group =>   2
Atom   5H    basis set group =>   2
Atom   6H    basis set group =>   2
Atom   7H    basis set group =>   2
Atom   8H    basis set group =>   2
Atom   9H    basis set group =>   2
Atom  10H    basis set group =>   2
Atom  11H    basis set group =>   2
Atom  12H    basis set group =>   2
------------------------------------------------------------------------------
                           ORCA GTO INTEGRAL CALCULATION
------------------------------------------------------------------------------

                         BASIS SET STATISTICS AND STARTUP INFO

 # of primitive gaussian shells          ...   84
 # of primitive gaussian functions       ...  132
 # of contracted shells                  ...   42
 # of contracted basis functions         ...   74
 Highest angular momentum                ...    2
 Maximum contraction depth               ...    5
 Integral package used                   ... LIBINT
 Integral threshhold            Thresh   ...  1.000e-12
 Primitive cut-off              TCut     ...  1.000e-14


------------------------------ INTEGRAL EVALUATION ----------------------------


 * One electron integrals 
 Pre-screening matrix                    ... done
 Shell pair data                         ... done (   0.000 sec)

-------------------------------------------------------------------------------
                                 ORCA SCF
-------------------------------------------------------------------------------

------------
SCF SETTINGS
------------
Hamiltonian:
 Density Functional     Method          .... DFT(GTOs)
 Exchange Functional    Exchange        .... B88
   X-Alpha parameter    XAlpha          ....  0.666667
   Becke's b parameter  XBeta           ....  0.004200
 Correlation Functional Correlation     .... LYP
 LDA part of GGA corr.  LDAOpt          .... VWN-5
 Gradients option       PostSCFGGA      .... off
 Hybrid DFT is turned on
   Fraction HF Exchange ScalHFX         ....  0.200000
   Scaling of DF-GGA-X  ScalDFX         ....  0.720000
   Scaling of DF-GGA-C  ScalDFC         ....  0.810000
   Scaling of DF-LDA-C  ScalLDAC        ....  1.000000
   Perturbative correction              ....  0.000000
   Density functional embedding theory  .... OFF
   NL short-range parameter             ....  4.800000


General Settings:
 Integral files         IntName         .... orca3
 Hartree-Fock type      HFTyp           .... UHF
 Total Charge           Charge          ....    0
 Multiplicity           Mult            ....    2
 Number of Electrons    NEL             ....   33
 Basis Dimension        Dim             ....   74
 Nuclear Repulsion      ENuc            ....    126.8158434128 Eh

Convergence Acceleration:
 DIIS                   CNVDIIS         .... on
   Start iteration      DIISMaxIt       ....    12
   Startup error        DIISStart       ....  0.200000
   # of expansion vecs  DIISMaxEq       ....     5
   Bias factor          DIISBfac        ....   1.050
   Max. coefficient     DIISMaxC        ....  10.000
 Newton-Raphson         CNVNR           .... off
 SOSCF                  CNVSOSCF        .... off
 Level Shifting         CNVShift        .... on
   Level shift para.    LevelShift      ....    0.2500
   Turn off err/grad.   ShiftErr        ....    0.0010
 Zerner damping         CNVZerner       .... off
 Static damping         CNVDamp         .... on
   Fraction old density DampFac         ....    0.7000
   Max. Damping (<1)    DampMax         ....    0.9800
   Min. Damping (>=0)   DampMin         ....    0.0000
   Turn off err/grad.   DampErr         ....    0.1000
 Fernandez-Rico         CNVRico         .... off

SCF Procedure:
 Maximum # iterations   MaxIter         ....   500
 SCF integral mode      SCFMode         .... Direct
   Integral package                     .... LIBINT
 Reset frequency        DirectResetFreq ....    20
 Integral Threshold     Thresh          ....  1.000e-12 Eh
 Primitive CutOff       TCut            ....  1.000e-14 Eh

Convergence Tolerance:
 Convergence Check Mode ConvCheckMode   .... Total+1el-Energy
 Convergence forced     ConvForced      .... 0
 Energy Change          TolE            ....  1.000e-09 Eh
 1-El. energy change                    ....  1.000e-06 Eh
 DIIS Error             TolErr          ....  1.000e-08


Diagonalization of the overlap matrix:
Smallest eigenvalue                        ... 1.944e-03
Time for diagonalization                   ...    0.001 sec
Threshold for overlap eigenvalues          ... 1.000e-08
Number of eigenvalues below threshold      ... 0
Time for construction of square roots      ...    4.336 sec
Total time needed                          ...    4.337 sec

-------------------
DFT GRID GENERATION
-------------------

General Integration Accuracy     IntAcc      ...  4.340
Radial Grid Type                 RadialGrid  ... Gauss-Chebyshev
Angular Grid (max. acc.)         AngularGrid ... Lebedev-110
Angular grid pruning method      GridPruning ... 3 (G Style)
Weight generation scheme         WeightScheme... Becke
Basis function cutoff            BFCut       ...    1.0000e-12
Integration weight cutoff        WCut        ...    1.0000e-14
Grids for H and He will be reduced by one unit

# of grid points (after initial pruning)     ...  13770 (   0.0 sec)
# of grid points (after weights+screening)   ...  12904 (   0.0 sec)
nearest neighbour list constructed           ...    0.0 sec
Grid point re-assignment to atoms done       ...    0.0 sec
Grid point division into batches done        ...    0.0 sec
Reduced shell lists constructed in    0.1 sec

Total number of grid points                  ...    12904
Total number of batches                      ...      209
Average number of points per batch           ...       61
Average number of grid points per atom       ...      993
Average number of shells per batch           ...    37.35 (88.92%)
Average number of basis functions per batch  ...    66.60 (90.01%)
Average number of large shells per batch     ...    32.71 (87.59%)
Average number of large basis fcns per batch ...    57.90 (86.94%)
Maximum spatial batch extension              ...  20.93, 18.99, 25.12 au
Average spatial batch extension              ...   4.14,  4.10,  4.21 au

Time for grid setup =    0.846 sec

------------------------------
INITIAL GUESS: MODEL POTENTIAL
------------------------------
Loading Hartree-Fock densities                     ... done
Calculating cut-offs                               ... done
Setting up the integral package                    ... done
Initializing the effective Hamiltonian             ... done
Starting the Coulomb interaction                   ... done (   0.0 sec)
Reading the grid                                   ... done
Mapping shells                                     ... done
Starting the XC term evaluation                    ... done (   0.1 sec)
  promolecular density results
     # of electrons  =     32.996455124
     EX              =    -23.186240773
     EC              =     -1.031899446
     EX+EC           =    -24.218140219
Transforming the Hamiltonian                       ... done (   0.0 sec)
Diagonalizing the Hamiltonian                      ... done (   0.0 sec)
Back transforming the eigenvectors                 ... done (   0.0 sec)
Now organizing SCF variables                       ... done
                      ------------------
                      INITIAL GUESS DONE (   1.1 sec)
                      ------------------
--------------
SCF ITERATIONS
--------------
ITER       Energy         Delta-E        Max-DP      RMS-DP      [F,P]     Damp
               ***  Starting incremental Fock matrix formation  ***
  0   -157.3559213925   0.000000000000 0.04268445  0.00208290  0.1711929 0.7000
  1   -157.4254560446  -0.069534652078 0.02629164  0.00150146  0.0884942 0.7000
                               ***Turning on DIIS***
  2   -157.4534900255  -0.028033980880 0.03638946  0.00251760  0.0325777 0.0000
  3   -157.4917717523  -0.038281726828 0.01779625  0.00103888  0.0487032 0.0000
  4   -157.5042539948  -0.012482242518 0.00611618  0.00032350  0.0095225 0.0000
  5   -157.5048933208  -0.000639325981 0.00176301  0.00011547  0.0024488 0.0000
  6   -157.5049475146  -0.000054193784 0.00135258  0.00007777  0.0008190 0.0000
  7   -157.5049599092  -0.000012394589 0.00045162  0.00001573  0.0001972 0.0000
  8   -157.5049609992  -0.000001089988 0.00014610  0.00000535  0.0000860 0.0000
  9   -157.5049611282  -0.000000128994 0.00006964  0.00000221  0.0000521 0.0000
 10   -157.5049611533  -0.000000025165 0.00002247  0.00000078  0.0000114 0.0000
 11   -157.5049611576  -0.000000004223 0.00001192  0.00000046  0.0000035 0.0000
 12   -157.5049611587  -0.000000001105 0.00000307  0.00000012  0.0000017 0.0000
 13   -157.5049611588  -0.000000000121 0.00000362  0.00000013  0.0000010 0.0000
 14   -157.5049611589  -0.000000000071 0.00000096  0.00000003  0.0000005 0.0000
 15   -157.5049611589   0.000000000005 0.00000075  0.00000003  0.0000001 0.0000
 16   -157.5049611589   0.000000000009 0.00000015  0.00000001  0.0000001 0.0000
                 **** Energy Check signals convergence ****

 Fermi smearing  (ALPHA): E(HOMO(Eh)) = -0.328499 MUE = -0.092980 gap=   7.740 eV
 Fermi smearing   (BETA): E(HOMO(Eh)) = -0.320736 MUE = -0.195852 gap=   6.747 eV

N_FOD(alpha) =  0.000000
 N_FOD(beta) =  0.000000
       N_FOD =  0.000000

               *****************************************************
               *                     SUCCESS                       *
               *           SCF CONVERGED AFTER  17 CYCLES          *
               *****************************************************

Setting up the final grid:

General Integration Accuracy     IntAcc      ...  4.670
Radial Grid Type                 RadialGrid  ... Gauss-Chebyshev
Angular Grid (max. acc.)         AngularGrid ... Lebedev-302
Angular grid pruning method      GridPruning ... 3 (G Style)
Weight generation scheme         WeightScheme... Becke
Basis function cutoff            BFCut       ...    1.0000e-12
Integration weight cutoff        WCut        ...    1.0000e-14
Grids for H and He will be reduced by one unit

# of grid points (after initial pruning)     ...  55394 (   0.0 sec)
# of grid points (after weights+screening)   ...  51216 (   0.1 sec)
nearest neighbour list constructed           ...    0.0 sec
Grid point re-assignment to atoms done       ...    0.0 sec
Grid point division into batches done        ...    0.1 sec
Reduced shell lists constructed in    0.3 sec

Total number of grid points                  ...    51216
Total number of batches                      ...      808
Average number of points per batch           ...       63
Average number of grid points per atom       ...     3940
Average number of shells per batch           ...    34.93 (83.16%)
Average number of basis functions per batch  ...    62.07 (83.88%)
Average number of large shells per batch     ...    29.92 (85.65%)
Average number of large basis fcns per batch ...    52.66 (84.84%)
Maximum spatial batch extension              ...  19.67, 18.11, 20.21 au
Average spatial batch extension              ...   2.64,  2.62,  2.57 au

Final grid set up in    2.5 sec
Final integration                            ... done (  12.8 sec)
Change in XC energy                          ...    -0.000054024
Integrated number of electrons               ...    32.999869856
Previous integrated no of electrons          ...    33.000634974

----------------
TOTAL SCF ENERGY
----------------

Total Energy       :         -157.50501518 Eh           -4285.92936 eV

Components:
Nuclear Repulsion  :          126.81584341 Eh            3450.83454 eV
Electronic Energy  :         -284.32085860 Eh           -7736.76389 eV
One Electron Energy:         -461.11845586 Eh          -12547.67110 eV
Two Electron Energy:          176.79759727 Eh            4810.90720 eV

Virial components:
Potential Energy   :         -313.38494046 Eh           -8527.63777 eV
Kinetic Energy     :          155.87992527 Eh            4241.70841 eV
Virial Ratio       :            2.01042527


DFT components:
N(Alpha)           :       16.999931562885 electrons
N(Beta)            :       15.999938292717 electrons
N(Total)           :       32.999869855601 electrons
E(X)               :      -18.883124293111 Eh       
E(C)               :       -1.220578126741 Eh       
E(XC)              :      -20.103702419853 Eh       
DFET-embed. en.    :        0.000000000000 Eh       

---------------
SCF CONVERGENCE
---------------

  Last Energy change         ...   -6.6507e-12  Tolerance :   1.0000e-09
  Last MAX-Density change    ...    1.0298e-07  Tolerance :   1.0000e-08
  Last RMS-Density change    ...    4.3575e-09  Tolerance :   1.0000e-09
  Last DIIS Error            ...    3.4533e-08  Tolerance :   1.0000e-08

             **** THE GBW FILE WAS UPDATED (orca3.gbw) ****
             **** DENSITY FILE WAS UPDATED (orca3.scfp) ****
             **** ENERGY FILE WAS UPDATED (orca3.en.tmp) ****
             **** THE GBW FILE WAS UPDATED (orca3.gbw) ****
             **** DENSITY FILE WAS UPDATED (orca3.scfp) ****
----------------
ORBITAL ENERGIES
----------------
                 SPIN UP ORBITALS
  NO   OCC          E(Eh)            E(eV) 
   0   1.0000     -10.189186      -277.2618 
   1   1.0000     -10.184482      -277.1338 
   2   1.0000     -10.168238      -276.6918 
   3   1.0000     -10.167344      -276.6675 
   4   1.0000      -0.804572       -21.8935 
   5   1.0000      -0.673900       -18.3378 
   6   1.0000      -0.669230       -18.2107 
   7   1.0000      -0.540344       -14.7035 
   8   1.0000      -0.465702       -12.6724 
   9   1.0000      -0.438298       -11.9267 
  10   1.0000      -0.428805       -11.6684 
  11   1.0000      -0.380863       -10.3638 
  12   1.0000      -0.358878        -9.7656 
  13   1.0000      -0.346153        -9.4193 
  14   1.0000      -0.332454        -9.0465 
  15   1.0000      -0.328499        -8.9389 
  16   1.0000      -0.235200        -6.4001 
  17   0.0000       0.049240         1.3399 
  18   0.0000       0.090987         2.4759 
  19   0.0000       0.105001         2.8572 
  20   0.0000       0.108751         2.9593 
  21   0.0000       0.120253         3.2723 
  22   0.0000       0.133876         3.6430 
  23   0.0000       0.155297         4.2258 
  24   0.0000       0.164063         4.4644 
  25   0.0000       0.175962         4.7882 
  26   0.0000       0.221336         6.0228 
  27   0.0000       0.257287         7.0011 
  28   0.0000       0.274949         7.4818 
  29   0.0000       0.396086        10.7780 
  30   0.0000       0.429858        11.6970 
  31   0.0000       0.435303        11.8452 
  32   0.0000       0.450210        12.2508 
  33   0.0000       0.484428        13.1819 
  34   0.0000       0.548913        14.9367 
  35   0.0000       0.591857        16.1053 
  36   0.0000       0.621724        16.9180 
  37   0.0000       0.630686        17.1618 
  38   0.0000       0.649601        17.6765 
  39   0.0000       0.659863        17.9558 
  40   0.0000       0.670972        18.2581 
  41   0.0000       0.680075        18.5058 
  42   0.0000       0.691100        18.8058 
  43   0.0000       0.703788        19.1510 
  44   0.0000       0.716525        19.4976 
  45   0.0000       0.719497        19.5785 
  46   0.0000       0.727342        19.7920 
  47   0.0000       0.734557        19.9883 
  48   0.0000       0.740583        20.1523 
  49   0.0000       0.757341        20.6083 
  50   0.0000       0.781978        21.2787 
  51   0.0000       0.884340        24.0641 
  52   0.0000       0.986364        26.8403 
  53   0.0000       1.127717        30.6867 
  54   0.0000       1.386214        37.7208 
  55   0.0000       1.412954        38.4484 
  56   0.0000       1.743400        47.4403 
  57   0.0000       1.767773        48.1035 
  58   0.0000       1.780564        48.4516 
  59   0.0000       1.782625        48.5077 
  60   0.0000       1.917543        52.1790 
  61   0.0000       1.963556        53.4311 
  62   0.0000       1.996963        54.3401 
  63   0.0000       2.015560        54.8462 
  64   0.0000       2.070331        56.3366 
  65   0.0000       2.089263        56.8517 
  66   0.0000       2.144078        58.3433 
  67   0.0000       2.156001        58.6678 
  68   0.0000       2.183125        59.4058 
  69   0.0000       2.419339        65.8336 
  70   0.0000       2.441035        66.4239 
  71   0.0000       2.483438        67.5778 
  72   0.0000       2.698990        73.4433 
  73   0.0000       2.706619        73.6509 

                 SPIN DOWN ORBITALS
  NO   OCC          E(Eh)            E(eV) 
   0   1.0000     -10.184735      -277.1407 
   1   1.0000     -10.174084      -276.8509 
   2   1.0000     -10.168140      -276.6892 
   3   1.0000     -10.166953      -276.6569 
   4   1.0000      -0.798245       -21.7214 
   5   1.0000      -0.672747       -18.3064 
   6   1.0000      -0.650756       -17.7080 
   7   1.0000      -0.530050       -14.4234 
   8   1.0000      -0.460358       -12.5270 
   9   1.0000      -0.433176       -11.7873 
  10   1.0000      -0.425771       -11.5858 
  11   1.0000      -0.380018       -10.3408 
  12   1.0000      -0.354914        -9.6577 
  13   1.0000      -0.335538        -9.1304 
  14   1.0000      -0.329882        -8.9765 
  15   1.0000      -0.320736        -8.7277 
  16   0.0000      -0.072795        -1.9809 
  17   0.0000       0.052882         1.4390 
  18   0.0000       0.092727         2.5232 
  19   0.0000       0.107914         2.9365 
  20   0.0000       0.110456         3.0056 
  21   0.0000       0.123231         3.3533 
  22   0.0000       0.136368         3.7108 
  23   0.0000       0.155943         4.2434 
  24   0.0000       0.167947         4.5701 
  25   0.0000       0.180154         4.9022 
  26   0.0000       0.223272         6.0755 
  27   0.0000       0.260910         7.0997 
  28   0.0000       0.285585         7.7712 
  29   0.0000       0.406483        11.0610 
  30   0.0000       0.435101        11.8397 
  31   0.0000       0.436844        11.8871 
  32   0.0000       0.457891        12.4599 
  33   0.0000       0.518597        14.1117 
  34   0.0000       0.556878        15.1534 
  35   0.0000       0.606909        16.5148 
  36   0.0000       0.629991        17.1429 
  37   0.0000       0.642872        17.4934 
  38   0.0000       0.654730        17.8161 
  39   0.0000       0.664530        18.0828 
  40   0.0000       0.677093        18.4246 
  41   0.0000       0.682967        18.5845 
  42   0.0000       0.696300        18.9473 
  43   0.0000       0.706236        19.2177 
  44   0.0000       0.718715        19.5572 
  45   0.0000       0.721550        19.6344 
  46   0.0000       0.735724        20.0201 
  47   0.0000       0.738189        20.0872 
  48   0.0000       0.746570        20.3152 
  49   0.0000       0.763644        20.7798 
  50   0.0000       0.784017        21.3342 
  51   0.0000       0.892765        24.2934 
  52   0.0000       0.987955        26.8836 
  53   0.0000       1.132224        30.8094 
  54   0.0000       1.398151        38.0456 
  55   0.0000       1.418185        38.5908 
  56   0.0000       1.758211        47.8433 
  57   0.0000       1.774724        48.2927 
  58   0.0000       1.789441        48.6932 
  59   0.0000       1.838690        50.0333 
  60   0.0000       1.921623        52.2900 
  61   0.0000       1.984244        53.9940 
  62   0.0000       2.002736        54.4972 
  63   0.0000       2.026177        55.1351 
  64   0.0000       2.086895        56.7873 
  65   0.0000       2.108286        57.3694 
  66   0.0000       2.159316        58.7580 
  67   0.0000       2.166704        58.9590 
  68   0.0000       2.187196        59.5166 
  69   0.0000       2.427828        66.0646 
  70   0.0000       2.449513        66.6546 
  71   0.0000       2.491271        67.7909 
  72   0.0000       2.702247        73.5319 
  73   0.0000       2.715118        73.8821 

                    ********************************
                    * MULLIKEN POPULATION ANALYSIS *
                    ********************************

------------------------------------------
FOD BASED MULLIKEN REDUCED ORBITAL CHARGES
------------------------------------------
  0 C s       :     0.000000  s :     0.000000
      pz      :     0.000000  p :     0.000000
      px      :     0.000000
      py      :     0.000000
      dz2     :     0.000000  d :     0.000000
      dxz     :     0.000000
      dyz     :     0.000000
      dx2y2   :     0.000000
      dxy     :     0.000000
  1 C s       :     0.000000  s :     0.000000
      pz      :     0.000000  p :     0.000000
      px      :     0.000000
      py      :     0.000000
      dz2     :    -0.000000  d :     0.000000
      dxz     :     0.000000
      dyz     :     0.000000
      dx2y2   :     0.000000
      dxy     :     0.000000
  2 C s       :    -0.000000  s :    -0.000000
      pz      :     0.000000  p :     0.000000
      px      :     0.000000
      py      :     0.000000
      dz2     :     0.000000  d :     0.000000
      dxz     :     0.000000
      dyz     :     0.000000
      dx2y2   :     0.000000
      dxy     :     0.000000
  3 C s       :    -0.000000  s :    -0.000000
      pz      :     0.000000  p :     0.000000
      px      :     0.000000
      py      :     0.000000
      dz2     :     0.000000  d :     0.000000
      dxz     :     0.000000
      dyz     :     0.000000
      dx2y2   :     0.000000
      dxy     :     0.000000
  4 H s       :     0.000000  s :     0.000000
  5 H s       :     0.000000  s :     0.000000
  6 H s       :     0.000000  s :     0.000000
  7 H s       :     0.000000  s :     0.000000
  8 H s       :     0.000000  s :     0.000000
  9 H s       :     0.000000  s :     0.000000
 10 H s       :     0.000000  s :     0.000000
 11 H s       :     0.000000  s :     0.000000
 12 H s       :     0.000000  s :     0.000000


                     *******************************
                     * LOEWDIN POPULATION ANALYSIS *
                     *******************************

-------------------------------------------
LOEWDIN ATOMIC CHARGES AND SPIN POPULATIONS
-------------------------------------------
   0 C :   -0.177549    0.004697
   1 C :   -0.207178    0.941197
   2 C :   -0.302890    0.012500
   3 C :   -0.309200    0.003551
   4 H :    0.123729    0.058152
   5 H :    0.104755   -0.009697
   6 H :    0.104552   -0.009051
   7 H :    0.107478   -0.000648
   8 H :    0.109418   -0.000430
   9 H :    0.112475    0.001536
  10 H :    0.112100   -0.000444
  11 H :    0.110874   -0.001004
  12 H :    0.111436   -0.000360

----------------------------------------------------
LOEWDIN REDUCED ORBITAL CHARGES AND SPIN POPULATIONS
----------------------------------------------------
CHARGE
  0 C s       :     2.869998  s :     2.869998
      pz      :     1.051066  p :     3.191222
      px      :     1.073185
      py      :     1.066971
      dz2     :     0.030839  d :     0.116329
      dxz     :     0.016746
      dyz     :     0.011074
      dx2y2   :     0.026560
      dxy     :     0.031110
  1 C s       :     3.055143  s :     3.055143
      pz      :     0.959146  p :     3.088507
      px      :     1.053662
      py      :     1.075699
      dz2     :     0.006542  d :     0.063528
      dxz     :     0.014366
      dyz     :     0.008913
      dx2y2   :     0.014796
      dxy     :     0.018911
  2 C s       :     2.952866  s :     2.952866
      pz      :     1.107988  p :     3.274562
      px      :     1.093491
      py      :     1.073084
      dz2     :     0.017508  d :     0.075462
      dxz     :     0.019319
      dyz     :     0.005917
      dx2y2   :     0.012931
      dxy     :     0.019787
  3 C s       :     2.955077  s :     2.955077
      pz      :     1.112558  p :     3.279969
      px      :     1.092399
      py      :     1.075012
      dz2     :     0.007478  d :     0.074154
      dxz     :     0.021388
      dyz     :     0.013869
      dx2y2   :     0.010040
      dxy     :     0.021378
  4 H s       :     0.876271  s :     0.876271
  5 H s       :     0.895245  s :     0.895245
  6 H s       :     0.895448  s :     0.895448
  7 H s       :     0.892522  s :     0.892522
  8 H s       :     0.890582  s :     0.890582
  9 H s       :     0.887525  s :     0.887525
 10 H s       :     0.887900  s :     0.887900
 11 H s       :     0.889126  s :     0.889126
 12 H s       :     0.888564  s :     0.888564

SPIN
  0 C s       :    -0.001115  s :    -0.001115
      pz      :     0.002530  p :    -0.006925
      px      :    -0.008692
      py      :    -0.000763
      dz2     :     0.008698  d :     0.012737
      dxz     :     0.002534
      dyz     :     0.000134
      dx2y2   :     0.000775
      dxy     :     0.000596
  1 C s       :     0.111602  s :     0.111602
      pz      :     0.753531  p :     0.833627
      px      :     0.020821
      py      :     0.059275
      dz2     :    -0.000624  d :    -0.004032
      dxz     :    -0.001171
      dyz     :    -0.001214
      dx2y2   :    -0.000690
      dxy     :    -0.000332
  2 C s       :     0.004541  s :     0.004541
      pz      :     0.000540  p :     0.008075
      px      :     0.002081
      py      :     0.005454
      dz2     :     0.000190  d :    -0.000116
      dxz     :    -0.000199
      dyz     :     0.000085
      dx2y2   :    -0.000116
      dxy     :    -0.000076
  3 C s       :     0.001181  s :     0.001181
      pz      :     0.001254  p :     0.002473
      px      :     0.000573
      py      :     0.000646
      dz2     :     0.000232  d :    -0.000103
      dxz     :    -0.000157
      dyz     :     0.000026
      dx2y2   :    -0.000099
      dxy     :    -0.000105
  4 H s       :     0.058152  s :     0.058152
  5 H s       :    -0.009697  s :    -0.009697
  6 H s       :    -0.009051  s :    -0.009051
  7 H s       :    -0.000648  s :    -0.000648
  8 H s       :    -0.000430  s :    -0.000430
  9 H s       :     0.001536  s :     0.001536
 10 H s       :    -0.000444  s :    -0.000444
 11 H s       :    -0.001004  s :    -0.001004
 12 H s       :    -0.000360  s :    -0.000360


                      *****************************
                      * MAYER POPULATION ANALYSIS *
                      *****************************

  NA   - Mulliken gross atomic population
  ZA   - Total nuclear charge
  QA   - Mulliken gross atomic charge
  VA   - Mayer's total valence
  BVA  - Mayer's bonded valence
  FA   - Mayer's free valence

  ATOM       NA         ZA         QA         VA         BVA        FA
  0 C      6.1656     6.0000    -0.1656     4.2562     4.2535     0.0027
  1 C      6.1613     6.0000    -0.1613     3.8986     3.0556     0.8430
  2 C      6.2139     6.0000    -0.2139     3.9643     3.9642     0.0001
  3 C      6.2415     6.0000    -0.2415     3.9357     3.9357     0.0000
  4 H      0.9215     1.0000     0.0785     0.9345     0.9304     0.0042
  5 H      0.9151     1.0000     0.0849     0.9525     0.9514     0.0010
  6 H      0.9157     1.0000     0.0843     0.9510     0.9500     0.0010
  7 H      0.9164     1.0000     0.0836     0.9526     0.9526     0.0000
  8 H      0.9145     1.0000     0.0855     0.9623     0.9623     0.0000
  9 H      0.9062     1.0000     0.0938     0.9636     0.9636     0.0000
 10 H      0.9091     1.0000     0.0909     0.9680     0.9680     0.0000
 11 H      0.9140     1.0000     0.0860     0.9525     0.9525     0.0000
 12 H      0.9051     1.0000     0.0949     0.9658     0.9658     0.0000

  Mayer bond orders larger than 0.100000
B(  0-C ,  1-C ) :   1.1321 B(  0-C ,  2-C ) :   1.1088 B(  0-C ,  3-C ) :   1.0831 
B(  0-C ,  4-H ) :   0.8886 B(  1-C ,  5-H ) :   0.9445 B(  1-C ,  6-H ) :   0.9383 
B(  2-C ,  7-H ) :   0.9576 B(  2-C ,  8-H ) :   0.9571 B(  2-C ,  9-H ) :   0.9534 
B(  3-C , 10-H ) :   0.9587 B(  3-C , 11-H ) :   0.9571 B(  3-C , 12-H ) :   0.9596 


-------
TIMINGS
-------

Total SCF time: 0 days 0 hours 10 min 36 sec 

Total time                  ....     636.245 sec
Sum of individual times     ....     524.581 sec  ( 82.4%)

Fock matrix formation       ....     411.408 sec  ( 64.7%)
  XC integration            ....     213.365 sec  ( 51.9% of F)
    Basis function eval.    ....       0.821 sec  (  0.4% of XC)
    Density eval.           ....       0.683 sec  (  0.3% of XC)
    XC-Functional eval.     ....       0.423 sec  (  0.2% of XC)
    XC-Potential eval.      ....       0.870 sec  (  0.4% of XC)
Diagonalization             ....      27.991 sec  (  4.4%)
Density matrix formation    ....      51.837 sec  (  8.1%)
Population analysis         ....      21.836 sec  (  3.4%)
Initial guess               ....       0.207 sec  (  0.0%)
Orbital Transformation      ....       0.000 sec  (  0.0%)
Orbital Orthonormalization  ....       0.000 sec  (  0.0%)
DIIS solution               ....       7.955 sec  (  1.3%)
Grid generation             ....       3.349 sec  (  0.5%)


-------------------------------------------------------------------------------
                          DFT DISPERSION CORRECTION                            
                                                                               
                              DFTD3 V3.1  Rev 1                                
                          USING Becke-Johnson damping                          
-------------------------------------------------------------------------------
The B3LYP functional is recognized
Active option DFTDOPT                   ...         4   

molecular C6(AA) [au] = 1132.541643 


            DFT-D V3
 parameters
 s6 scaling factor         :     1.0000 
 a1 scaling factor         :     0.3981 
 s8 scaling factor         :     1.9889 
 a2 scaling factor         :     4.4211 
 ad hoc parameters k1-k3   :    16.0000     1.3333    -4.0000 

 Edisp/kcal,au: -9.098853645918  -0.014499944704 
 E6   /kcal   :  -4.512924908 
 E8   /kcal   :  -4.585928738 
 % E8         :  50.401170482 

-------------------------   ----------------
Dispersion correction           -0.014499945
-------------------------   ----------------


-------------------------   --------------------
FINAL SINGLE POINT ENERGY      -157.519515127965
-------------------------   --------------------

------------------------------------------------------------------------------
                         ORCA SCF GRADIENT CALCULATION
------------------------------------------------------------------------------

Gradient of the Kohn-Sham DFT energy:
Kohn-Sham wavefunction type      ... UKS
Hartree-Fock exchange scaling    ...    0.200
Number of operators              ...    2
Number of atoms                  ...   13
Basis set dimensions             ...   74
Integral neglect threshold       ... 1.0e-12
Integral primitive cutoff        ... 1.0e-14

Nuclear repulsion gradient       ... done
One Electron Gradient            ... done
Pre-screening matrix             ... done
Starting the two electron gradient:
Two electron gradient done
Exchange-correlation gradient    ... done
Dispersion correction            ... done

------------------
CARTESIAN GRADIENT
------------------

   1   C   :    0.002841733    0.009819397   -0.000379036
   2   C   :    0.001481787   -0.002773818    0.050994802
   3   C   :   -0.013105985    0.007324431    0.018425269
   4   C   :   -0.015264661   -0.030532321    0.000048951
   5   H   :    0.006377315    0.001386073   -0.003596775
   6   H   :    0.003892360    0.005163115   -0.021033337
   7   H   :    0.010179709   -0.004937181   -0.017542055
   8   H   :    0.001716661    0.000254572   -0.009748171
   9   H   :   -0.000574757    0.003688348   -0.006945404
  10   H   :    0.001109150    0.007069092   -0.002089221
  11   H   :   -0.011285514    0.002892644   -0.001964084
  12   H   :    0.002331700    0.003603222   -0.005967590
  13   H   :    0.010300502   -0.002957574   -0.000203350

Difference to translation invariance:
           :    0.0000000000    0.0000000000   -0.0000000000

Norm of the cartesian gradient     ...    0.0771031123
RMS gradient                       ...    0.0123463790
MAX gradient                       ...    0.0509948023

-------
TIMINGS
-------

Total SCF gradient time            ...        3.960 sec

One electron gradient       ....       0.026 sec  (  0.7%)
Prescreening matrices       ....       0.027 sec  (  0.7%)
Two electron gradient       ....       1.334 sec  ( 33.7%)
XC gradient                 ....       2.342 sec  ( 59.2%)
------------------------------------------------------------------------------
                         ORCA GEOMETRY RELAXATION STEP
------------------------------------------------------------------------------

Reading the OPT-File                    .... done
Getting information on internals        .... done
Copying old internal coords+grads       .... done
Making the new internal coordinates     .... (new redundants).... done
Validating the new internal coordinates .... (new redundants).... done
Calculating the B-matrix                .... done
Calculating the G,G- and P matrices     .... done
Transforming gradient to internals      .... done
Projecting the internal gradient        .... done
Number of atoms                         ....  13
Number of internal coordinates          ....  57
Current Energy                          ....  -157.519515128 Eh
Current gradient norm                   ....     0.077103112 Eh/bohr
Maximum allowed component of the step   ....  0.300
Current trust radius                    ....  0.300
Evaluating the initial hessian          ....  (Almloef) done
Projecting the Hessian                  .... done
Forming the augmented Hessian           .... done
Diagonalizing the augmented Hessian     .... done
Last element of RFO vector              ....  0.941445190
Lowest eigenvalues of augmented Hessian:
 -0.019595355  0.012471867  0.012919278  0.014054914  0.062664541
Length of the computed step             ....  0.358136689
Warning: the length of the step is outside the trust region - taking restricted step instead
The input lambda is                     ....    -0.019595
   iter:   1  x=   -0.033710  g=    2.710828 f(x)=     0.038262
   iter:   2  x=   -0.039852  g=    1.553934 f(x)=     0.009544
   iter:   3  x=   -0.040497  g=    1.295371 f(x)=     0.000836
   iter:   4  x=   -0.040503  g=    1.272504 f(x)=     0.000007
   iter:   5  x=   -0.040503  g=    1.272300 f(x)=     0.000000
   iter:   6  x=   -0.040503  g=    1.272300 f(x)=     0.000000
The output lambda is                    ....    -0.040503 (6 iterations)
The final length of the internal step   ....  0.300000000
Converting the step to cartesian space:
 Initial RMS(Int)=    0.0397359707
Transforming coordinates:
 Iter   0:  RMS(Cart)=    0.0633857684 RMS(Int)=    0.0401365849
 Iter   1:  RMS(Cart)=    0.0038990137 RMS(Int)=    0.0031527856
 Iter   2:  RMS(Cart)=    0.0002783755 RMS(Int)=    0.0002709048
 Iter   3:  RMS(Cart)=    0.0000481029 RMS(Int)=    0.0000365022
 Iter   4:  RMS(Cart)=    0.0000035430 RMS(Int)=    0.0000036607
 Iter   5:  RMS(Cart)=    0.0000005807 RMS(Int)=    0.0000004282
 Iter   6:  RMS(Cart)=    0.0000000518 RMS(Int)=    0.0000000504
done
Storing new coordinates                 .... done

                                .--------------------.
          ----------------------|Geometry convergence|-------------------------
          Item                value                   Tolerance       Converged
          ---------------------------------------------------------------------
          RMS gradient        0.0090158518            0.0001000000      NO
          MAX gradient        0.0313215591            0.0003000000      NO
          RMS step            0.0397359707            0.0020000000      NO
          MAX step            0.1047404825            0.0040000000      NO
          ........................................................
          Max(Bonds)      0.0362      Max(Angles)    6.00
          Max(Dihed)        5.92      Max(Improp)    0.00
          ---------------------------------------------------------------------

The optimization has not yet converged - more geometry cycles are needed


    ---------------------------------------------------------------------------
                         Redundant Internal Coordinates
                            (Angstroem and degrees)

        Definition                    Value    dE/dq     Step     New-Value
    ----------------------------------------------------------------------------
     1. B(C   1,C   0)                1.5052 -0.009815  0.0115    1.5167   
     2. B(C   2,C   0)                1.5107 -0.021060  0.0252    1.5360   
     3. B(C   3,C   0)                1.4995 -0.031322  0.0362    1.5357   
     4. B(H   4,C   0)                1.1208  0.002971 -0.0043    1.1165   
     5. B(H   5,C   1)                1.1166  0.006003 -0.0087    1.1080   
     6. B(H   6,C   1)                1.0980 -0.005560  0.0075    1.1056   
     7. B(H   7,C   2)                1.1198  0.007530 -0.0110    1.1088   
     8. B(H   8,C   2)                1.1035 -0.001102  0.0015    1.1050   
     9. B(H   9,C   2)                1.1004 -0.001595  0.0022    1.1026   
    10. B(H  10,C   3)                1.1186  0.008526 -0.0124    1.1062   
    11. B(H  11,C   3)                1.1187  0.007260 -0.0105    1.1082   
    12. B(H  12,C   3)                1.1179  0.007943 -0.0115    1.1064   
    13. A(C   1,C   0,H   4)          105.51  0.002458   -0.85    104.66   
    14. A(C   2,C   0,H   4)          105.87 -0.000519    0.02    105.89   
    15. A(C   1,C   0,C   2)          113.06  0.000822   -0.25    112.81   
    16. A(C   1,C   0,C   3)          113.46 -0.002028    0.42    113.88   
    17. A(C   2,C   0,C   3)          111.93  0.000885    0.04    111.97   
    18. A(C   3,C   0,H   4)          106.23 -0.001581    0.59    106.82   
    19. A(H   5,C   1,H   6)          106.97  0.004132    3.34    110.31   
    20. A(C   0,C   1,H   6)          106.89 -0.028948    6.00    112.89   
    21. A(C   0,C   1,H   5)          107.19 -0.027655    5.85    113.03   
    22. A(H   7,C   2,H   9)          109.26  0.004790   -0.79    108.47   
    23. A(C   0,C   2,H   9)          110.05 -0.004435    0.46    110.51   
    24. A(H   7,C   2,H   8)          105.11  0.000514    0.61    105.73   
    25. A(C   0,C   2,H   8)          109.99 -0.004439    0.71    110.70   
    26. A(H   8,C   2,H   9)          113.42  0.008352   -1.99    111.42   
    27. A(C   0,C   2,H   7)          108.81 -0.004940    1.10    109.91   
    28. A(H  11,C   3,H  12)          104.98 -0.001588    0.41    105.39   
    29. A(H  10,C   3,H  12)          111.60  0.007302   -1.78    109.82   
    30. A(C   0,C   3,H  12)          113.60  0.002288   -0.54    113.06   
    31. A(H  10,C   3,H  11)          105.78  0.002252    0.11    105.89   
    32. A(C   0,C   3,H  11)          111.37 -0.000177    0.30    111.67   
    33. A(C   0,C   3,H  10)          109.19 -0.009578    1.48    110.66   
    34. D(H   6,C   1,C   0,C   3)     48.05  0.009703   -3.76     44.29   
    35. D(H   6,C   1,C   0,H   4)    -67.85  0.011148   -4.16    -72.01   
    36. D(H   6,C   1,C   0,C   2)    176.90  0.009874   -3.55    173.35   
    37. D(H   5,C   1,C   0,H   4)     46.55 -0.011023    5.31     51.87   
    38. D(H   5,C   1,C   0,C   2)    -68.70 -0.012297    5.92    -62.78   
    39. D(H   5,C   1,C   0,C   3)    162.45 -0.012468    5.72    168.17   
    40. D(H   7,C   2,C   0,C   1)    160.54 -0.000927    0.96    161.50   
    41. D(H   9,C   2,C   0,C   1)    -79.76 -0.000771    0.95    -78.82   
    42. D(H   8,C   2,C   0,H   4)    -69.14  0.000551    0.36    -68.78   
    43. D(H   8,C   2,C   0,C   1)     45.90  0.003614   -0.77     45.13   
    44. D(H   7,C   2,C   0,H   4)     45.51 -0.003989    2.09     47.60   
    45. D(H   7,C   2,C   0,C   3)    -69.82 -0.002253    1.36    -68.46   
    46. D(H   9,C   2,C   0,C   3)     49.88 -0.002097    1.34     51.22   
    47. D(H   9,C   2,C   0,H   4)    165.20 -0.003834    2.08    167.28   
    48. D(H   8,C   2,C   0,C   3)    175.54  0.002288   -0.38    175.16   
    49. D(H  12,C   3,C   0,H   4)   -135.73  0.003050   -1.88   -137.61   
    50. D(H  12,C   3,C   0,C   1)    108.80  0.002124   -1.44    107.36   
    51. D(H  11,C   3,C   0,H   4)    -17.44  0.002437   -1.51    -18.95   
    52. D(H  11,C   3,C   0,C   2)     97.66  0.001351   -1.12     96.54   
    53. D(H  11,C   3,C   0,C   1)   -132.91  0.001511   -1.07   -133.98   
    54. D(H  10,C   3,C   0,H   4)     99.01 -0.000758   -0.31     98.70   
    55. D(H  12,C   3,C   0,C   2)    -20.63  0.001963   -1.49    -22.12   
    56. D(H  10,C   3,C   0,C   2)   -145.89 -0.001845    0.09   -145.80   
    57. D(H  10,C   3,C   0,C   1)    -16.46 -0.001684    0.14    -16.32   
    ----------------------------------------------------------------------------

Time needed for optimization step       :     4.75 sec

         *************************************************************
         *                GEOMETRY OPTIMIZATION CYCLE   2            *
         *************************************************************
---------------------------------
CARTESIAN COORDINATES (ANGSTROEM)
---------------------------------
  C     -0.038513    0.029208   -0.411733
  C     -1.458505   -0.025820    0.118452
  C      0.748246   -1.262180   -0.142290
  C      0.740410    1.278340    0.025613
  H     -0.153094    0.091640   -1.520553
  H     -2.065138   -0.816355   -0.365991
  H     -1.981105    0.944595    0.031870
  H      1.629637   -1.314074   -0.813019
  H      0.136083   -2.149946   -0.383589
  H      1.101784   -1.288377    0.901724
  H      0.050591    2.055299    0.405391
  H      1.280777    1.741708   -0.823687
  H      1.516168    1.061942    0.784189

----------------------------
CARTESIAN COORDINATES (A.U.)
----------------------------
  NO LB      ZA    FRAG     MASS         X           Y           Z
   0 C     6.0000    0    12.011   -0.072780    0.055196   -0.778063
   1 C     6.0000    0    12.011   -2.756175   -0.048793    0.223842
   2 C     6.0000    0    12.011    1.413981   -2.385175   -0.268889
   3 C     6.0000    0    12.011    1.399173    2.415713    0.048402
   4 H     1.0000    0     1.008   -0.289306    0.173174   -2.873429
   5 H     1.0000    0     1.008   -3.902546   -1.542688   -0.691622
   6 H     1.0000    0     1.008   -3.743746    1.785025    0.060225
   7 H     1.0000    0     1.008    3.079568   -2.483240   -1.536384
   8 H     1.0000    0     1.008    0.257159   -4.062810   -0.724879
   9 H     1.0000    0     1.008    2.082069   -2.434680    1.704011
  10 H     1.0000    0     1.008    0.095604    3.883952    0.766078
  11 H     1.0000    0     1.008    2.420318    3.291351   -1.556542
  12 H     1.0000    0     1.008    2.865143    2.006779    1.481903

--------------------------------
INTERNAL COORDINATES (ANGSTROEM)
--------------------------------
 C      0   0   0     0.000000000000     0.00000000     0.00000000
 C      1   0   0     1.516740144304     0.00000000     0.00000000
 C      1   2   0     1.535992874464   112.81276277     0.00000000
 C      1   2   3     1.535684094468   113.88005306   230.94455407
 H      1   2   3     1.116470977341   104.66146618   114.65020350
 H      2   1   3     1.107986871347   112.68323050   297.46482261
 H      2   1   3     1.105582214527   112.53952580   173.09863963
 H      3   1   2     1.108792257377   109.90125009   161.50845409
 H      3   1   2     1.105033357832   110.69450578    45.11891722
 H      3   1   2     1.102560652961   110.50712335   281.18590411
 H      4   1   2     1.106230353660   110.65715119   343.68079210
 H      4   1   2     1.108159078171   111.66538206   226.01694198
 H      4   1   2     1.106375269271   113.06732082   107.36330938

---------------------------
INTERNAL COORDINATES (A.U.)
---------------------------
 C      0   0   0     0.000000000000     0.00000000     0.00000000
 C      1   0   0     2.866223489058     0.00000000     0.00000000
 C      1   2   0     2.902605876392   112.81276277     0.00000000
 C      1   2   3     2.902022366763   113.88005306   230.94455407
 H      1   2   3     2.109824383647   104.66146618   114.65020350
 H      2   1   3     2.093791746826   112.68323050   297.46482261
 H      2   1   3     2.089247603991   112.53952580   173.09863963
 H      3   1   2     2.095313705855   109.90125009   161.50845409
 H      3   1   2     2.088210415150   110.69450578    45.11891722
 H      3   1   2     2.083537680135   110.50712335   281.18590411
 H      4   1   2     2.090472409447   110.65715119   343.68079210
 H      4   1   2     2.094117170562   111.66538206   226.01694198
 H      4   1   2     2.090746260266   113.06732082   107.36330938


Diagonalization of the overlap matrix:
Smallest eigenvalue                        ... 2.253e-03
Time for diagonalization                   ...    0.001 sec
Threshold for overlap eigenvalues          ... 1.000e-08
Number of eigenvalues below threshold      ... 0
Time for construction of square roots      ...    8.165 sec
Total time needed                          ...    8.166 sec

-------------------
DFT GRID GENERATION
-------------------

General Integration Accuracy     IntAcc      ...  4.340
Radial Grid Type                 RadialGrid  ... Gauss-Chebyshev
Angular Grid (max. acc.)         AngularGrid ... Lebedev-110
Angular grid pruning method      GridPruning ... 3 (G Style)
Weight generation scheme         WeightScheme... Becke
Basis function cutoff            BFCut       ...    1.0000e-12
Integration weight cutoff        WCut        ...    1.0000e-14
Grids for H and He will be reduced by one unit

# of grid points (after initial pruning)     ...  13770 (   0.0 sec)
# of grid points (after weights+screening)   ...  12934 (   0.0 sec)
nearest neighbour list constructed           ...    0.0 sec
Grid point re-assignment to atoms done       ...    0.0 sec
Grid point division into batches done        ...    0.0 sec
Reduced shell lists constructed in    0.1 sec

Total number of grid points                  ...    12934
Total number of batches                      ...      210
Average number of points per batch           ...       61
Average number of grid points per atom       ...      995
Average number of shells per batch           ...    37.17 (88.49%)
Average number of basis functions per batch  ...    66.22 (89.48%)
Average number of large shells per batch     ...    32.39 (87.16%)
Average number of large basis fcns per batch ...    57.21 (86.39%)
Maximum spatial batch extension              ...  20.54, 19.54, 22.93 au
Average spatial batch extension              ...   4.15,  4.11,  4.19 au

Time for grid setup =    1.623 sec

--------------
SCF ITERATIONS
--------------
ITER       Energy         Delta-E        Max-DP      RMS-DP      [F,P]     Damp
               ***  Starting incremental Fock matrix formation  ***
  0   -157.5144423003   0.000000000000 0.00435060  0.00019044  0.0180891 0.7000
  1   -157.5151601220  -0.000717821668 0.00411483  0.00017460  0.0140230 0.7000
                               ***Turning on DIIS***
  2   -157.5157191362  -0.000559014243 0.01151295  0.00045927  0.0104000 0.0000
  3   -157.5171472365  -0.001428100288 0.00324270  0.00009001  0.0021573 0.0000
  4   -157.5171873694  -0.000040132888 0.00146314  0.00004416  0.0011695 0.0000
  5   -157.5171976253  -0.000010255888 0.00157972  0.00004516  0.0006619 0.0000
  6   -157.5172019063  -0.000004281045 0.00035229  0.00001124  0.0001836 0.0000
  7   -157.5172022791  -0.000000372767 0.00003717  0.00000231  0.0000493 0.0000
  8   -157.5172022952  -0.000000016044 0.00001547  0.00000100  0.0000314 0.0000
  9   -157.5172023012  -0.000000006060 0.00000477  0.00000027  0.0000047 0.0000
 10   -157.5172023016  -0.000000000343 0.00000235  0.00000011  0.0000026 0.0000
 11   -157.5172023016  -0.000000000049 0.00000144  0.00000005  0.0000010 0.0000
 12   -157.5172023016  -0.000000000007 0.00000036  0.00000002  0.0000005 0.0000
                 **** Energy Check signals convergence ****

 Fermi smearing  (ALPHA): E(HOMO(Eh)) = -0.331544 MUE = -0.084547 gap=   7.526 eV
 Fermi smearing   (BETA): E(HOMO(Eh)) = -0.324931 MUE = -0.191654 gap=   7.179 eV

N_FOD(alpha) =  0.000000
 N_FOD(beta) =  0.000000
       N_FOD =  0.000000

               *****************************************************
               *                     SUCCESS                       *
               *           SCF CONVERGED AFTER  13 CYCLES          *
               *****************************************************

Setting up the final grid:

General Integration Accuracy     IntAcc      ...  4.670
Radial Grid Type                 RadialGrid  ... Gauss-Chebyshev
Angular Grid (max. acc.)         AngularGrid ... Lebedev-302
Angular grid pruning method      GridPruning ... 3 (G Style)
Weight generation scheme         WeightScheme... Becke
Basis function cutoff            BFCut       ...    1.0000e-12
Integration weight cutoff        WCut        ...    1.0000e-14
Grids for H and He will be reduced by one unit

# of grid points (after initial pruning)     ...  55394 (   0.0 sec)
# of grid points (after weights+screening)   ...  51281 (   0.1 sec)
nearest neighbour list constructed           ...    0.0 sec
Grid point re-assignment to atoms done       ...    0.0 sec
Grid point division into batches done        ...    0.1 sec
Reduced shell lists constructed in    0.3 sec

Total number of grid points                  ...    51281
Total number of batches                      ...      807
Average number of points per batch           ...       63
Average number of grid points per atom       ...     3945
Average number of shells per batch           ...    34.80 (82.87%)
Average number of basis functions per batch  ...    61.85 (83.58%)
Average number of large shells per batch     ...    29.67 (85.26%)
Average number of large basis fcns per batch ...    52.13 (84.28%)
Maximum spatial batch extension              ...  18.18, 19.84, 20.21 au
Average spatial batch extension              ...   2.67,  2.60,  2.58 au

Final grid set up in    2.9 sec
Final integration                            ... done (  28.9 sec)
Change in XC energy                          ...    -0.000285465
Integrated number of electrons               ...    32.999944538
Previous integrated no of electrons          ...    33.000050390
Total Energy       :         -157.51748777 Eh           -4286.26875 eV
  Last Energy change         ...   -3.0411e-12  Tolerance :   1.0000e-09
  Last MAX-Density change    ...    2.0337e-07  Tolerance :   1.0000e-08
             **** THE GBW FILE WAS UPDATED (orca3.gbw) ****
             **** DENSITY FILE WAS UPDATED (orca3.scfp) ****
             **** ENERGY FILE WAS UPDATED (orca3.en.tmp) ****
             **** THE GBW FILE WAS UPDATED (orca3.gbw) ****
             **** DENSITY FILE WAS UPDATED (orca3.scfp) ****
Total SCF time: 0 days 0 hours 10 min 51 sec 


-------------------------------------------------------------------------------
                          DFT DISPERSION CORRECTION                            
                                                                               
                              DFTD3 V3.1  Rev 1                                
                          USING Becke-Johnson damping                          
-------------------------------------------------------------------------------
-------------------------   ----------------
Dispersion correction           -0.014272006
-------------------------   ----------------


-------------------------   --------------------
FINAL SINGLE POINT ENERGY      -157.531759771939
-------------------------   --------------------

------------------------------------------------------------------------------
                         ORCA SCF GRADIENT CALCULATION
------------------------------------------------------------------------------

Gradient of the Kohn-Sham DFT energy:
Kohn-Sham wavefunction type      ... UKS
Hartree-Fock exchange scaling    ...    0.200
Number of operators              ...    2
Number of atoms                  ...   13
Basis set dimensions             ...   74
Integral neglect threshold       ... 1.0e-12
Integral primitive cutoff        ... 1.0e-14

Nuclear repulsion gradient       ... done
One Electron Gradient            ... done
Pre-screening matrix             ... done
Starting the two electron gradient:
Two electron gradient done
Exchange-correlation gradient    ... done
Dispersion correction            ... done

------------------
CARTESIAN GRADIENT
------------------

   1   C   :    0.002635332    0.004779464   -0.004618717
   2   C   :   -0.001968126   -0.007455260    0.031292161
   3   C   :   -0.002952757   -0.001102856    0.010084684
   4   C   :   -0.003556589   -0.008541719    0.003978249
   5   H   :    0.002740333    0.000143195   -0.001125411
   6   H   :   -0.000941504    0.004398473   -0.012199462
   7   H   :    0.000776478    0.000650637   -0.011591363
   8   H   :   -0.001005285   -0.001074202   -0.003953771
   9   H   :    0.000251086    0.001171168   -0.004649555
  10   H   :    0.001866017    0.004191765   -0.001127090
  11   H   :   -0.002798806    0.000327719   -0.002575269
  12   H   :    0.000388091    0.002353387   -0.000320673
  13   H   :    0.004565729    0.000158231   -0.003193783

Difference to translation invariance:
           :    0.0000000000   -0.0000000000   -0.0000000000

Norm of the cartesian gradient     ...    0.0416016632
RMS gradient                       ...    0.0066615975
MAX gradient                       ...    0.0312921605

-------
TIMINGS
-------

Total SCF gradient time            ...        4.609 sec

One electron gradient       ....       0.027 sec  (  0.6%)
Prescreening matrices       ....       0.024 sec  (  0.5%)
Two electron gradient       ....       1.296 sec  ( 28.1%)
XC gradient                 ....       2.369 sec  ( 51.4%)
------------------------------------------------------------------------------
                         ORCA GEOMETRY RELAXATION STEP
------------------------------------------------------------------------------

Reading the OPT-File                    .... done
Getting information on internals        .... done
Copying old internal coords+grads       .... done
Making the new internal coordinates     .... (new redundants).... done
Validating the new internal coordinates .... (new redundants).... done
Calculating the B-matrix                .... done
Calculating the G,G- and P matrices     .... done
Transforming gradient to internals      .... done
Projecting the internal gradient        .... done
Number of atoms                         ....  13
Number of internal coordinates          ....  57
Current Energy                          ....  -157.531759772 Eh
Current gradient norm                   ....     0.041601663 Eh/bohr
Maximum allowed component of the step   ....  0.300
Current trust radius                    ....  0.300
Updating the Hessian (BFGS)             .... done
Forming the augmented Hessian           .... done
Diagonalizing the augmented Hessian     .... done
Last element of RFO vector              ....  0.943005978
Lowest eigenvalues of augmented Hessian:
 -0.008150105  0.012455740  0.012932659  0.014146156  0.062407723
Length of the computed step             ....  0.352888313
Warning: the length of the step is outside the trust region - taking restricted step instead
The input lambda is                     ....    -0.008150
   iter:   1  x=   -0.014570  g=    5.378519 f(x)=     0.034530
   iter:   2  x=   -0.016957  g=    3.257615 f(x)=     0.007777
   iter:   3  x=   -0.017157  g=    2.807114 f(x)=     0.000560
   iter:   4  x=   -0.017158  g=    2.774242 f(x)=     0.000003
   iter:   5  x=   -0.017158  g=    2.774048 f(x)=     0.000000
   iter:   6  x=   -0.017158  g=    2.774048 f(x)=    -0.000000
The output lambda is                    ....    -0.017158 (6 iterations)
The final length of the internal step   ....  0.300000000
Converting the step to cartesian space:
 Initial RMS(Int)=    0.0397359707
Transforming coordinates:
 Iter   0:  RMS(Cart)=    0.0498020225 RMS(Int)=    0.0399550736
 Iter   1:  RMS(Cart)=    0.0036168923 RMS(Int)=    0.0028130610
 Iter   2:  RMS(Cart)=    0.0002227646 RMS(Int)=    0.0002328411
 Iter   3:  RMS(Cart)=    0.0000301328 RMS(Int)=    0.0000237589
 Iter   4:  RMS(Cart)=    0.0000027405 RMS(Int)=    0.0000025052
 Iter   5:  RMS(Cart)=    0.0000002833 RMS(Int)=    0.0000002472
 Iter   6:  RMS(Cart)=    0.0000000340 RMS(Int)=    0.0000000273
done
Storing new coordinates                 .... done

                                .--------------------.
          ----------------------|Geometry convergence|-------------------------
          Item                value                   Tolerance       Converged
          ---------------------------------------------------------------------
          Energy change      -0.0122446440            0.0000050000      NO
          RMS gradient        0.0036349560            0.0001000000      NO
          MAX gradient        0.0110986617            0.0003000000      NO
          RMS step            0.0397359707            0.0020000000      NO
          MAX step            0.1130074839            0.0040000000      NO
          ........................................................
          Max(Bonds)      0.0135      Max(Angles)    4.70
          Max(Dihed)        6.47      Max(Improp)    0.00
          ---------------------------------------------------------------------

The optimization has not yet converged - more geometry cycles are needed


    ---------------------------------------------------------------------------
                         Redundant Internal Coordinates
                            (Angstroem and degrees)

        Definition                    Value    dE/dq     Step     New-Value
    ----------------------------------------------------------------------------
     1. B(C   1,C   0)                1.5167  0.004698 -0.0088    1.5079   
     2. B(C   2,C   0)                1.5360 -0.003563  0.0085    1.5445   
     3. B(C   3,C   0)                1.5357 -0.005944  0.0135    1.5492   
     4. B(H   4,C   0)                1.1165  0.000845 -0.0023    1.1142   
     5. B(H   5,C   1)                1.1080  0.002709 -0.0070    1.1009   
     6. B(H   6,C   1)                1.1056  0.001120 -0.0023    1.1033   
     7. B(H   7,C   2)                1.1088  0.001638 -0.0045    1.1043   
     8. B(H   8,C   2)                1.1050 -0.000057  0.0002    1.1052   
     9. B(H   9,C   2)                1.1026 -0.000572  0.0014    1.1040   
    10. B(H  10,C   3)                1.1062  0.001086 -0.0031    1.1031   
    11. B(H  11,C   3)                1.1082  0.001416 -0.0039    1.1042   
    12. B(H  12,C   3)                1.1064  0.000990 -0.0029    1.1035   
    13. A(C   1,C   0,H   4)          104.66  0.000006    0.13    104.80   
    14. A(C   2,C   0,H   4)          105.89 -0.000145    0.31    106.20   
    15. A(C   1,C   0,C   2)          112.81  0.000574   -0.47    112.34   
    16. A(C   1,C   0,C   3)          113.88  0.000421   -0.36    113.52   
    17. A(C   2,C   0,C   3)          111.97 -0.000258   -0.10    111.87   
    18. A(C   3,C   0,H   4)          106.82 -0.000716    0.63    107.45   
    19. A(H   5,C   1,H   6)          109.46  0.001274    3.91    113.37   
    20. A(C   0,C   1,H   6)          112.54 -0.011099    4.70    117.24   
    21. A(C   0,C   1,H   5)          112.68 -0.009661    4.34    117.02   
    22. A(H   7,C   2,H   9)          108.47  0.001842   -0.49    107.98   
    23. A(C   0,C   2,H   9)          110.51 -0.002216    0.31    110.82   
    24. A(H   7,C   2,H   8)          105.70 -0.001032    1.15    106.85   
    25. A(C   0,C   2,H   8)          110.69 -0.001658    0.45    111.15   
    26. A(H   8,C   2,H   9)          111.43  0.004622   -2.15    109.27   
    27. A(C   0,C   2,H   7)          109.90 -0.001477    0.82    110.72   
    28. A(H  11,C   3,H  12)          105.39 -0.002820    1.08    106.47   
    29. A(H  10,C   3,H  12)          109.83  0.002840   -1.60    108.23   
    30. A(C   0,C   3,H  12)          113.07  0.002684   -0.99    112.08   
    31. A(H  10,C   3,H  11)          105.87 -0.000596    0.74    106.61   
    32. A(C   0,C   3,H  11)          111.67  0.001541   -0.09    111.58   
    33. A(C   0,C   3,H  10)          110.66 -0.003717    0.94    111.60   
    34. D(H   6,C   1,C   0,C   3)     44.04  0.006422   -3.62     40.42   
    35. D(H   6,C   1,C   0,H   4)    -72.25  0.007067   -4.28    -76.53   
    36. D(H   6,C   1,C   0,C   2)    173.10  0.006960   -4.50    168.59   
    37. D(H   5,C   1,C   0,H   4)     52.12 -0.007614    5.82     57.94   
    38. D(H   5,C   1,C   0,C   2)    -62.54 -0.007722    5.59    -56.94   
    39. D(H   5,C   1,C   0,C   3)    168.41 -0.008259    6.47    174.88   
    40. D(H   7,C   2,C   0,C   1)    161.51 -0.001925    2.45    163.95   
    41. D(H   9,C   2,C   0,C   1)    -78.81 -0.001978    2.55    -76.26   
    42. D(H   8,C   2,C   0,H   4)    -68.79  0.000997    0.23    -68.56   
    43. D(H   8,C   2,C   0,C   1)     45.12  0.001205    0.34     45.46   
    44. D(H   7,C   2,C   0,H   4)     47.60 -0.002132    2.33     49.93   
    45. D(H   7,C   2,C   0,C   3)    -68.46 -0.001060    1.45    -67.01   
    46. D(H   9,C   2,C   0,C   3)     51.22 -0.001113    1.55     52.77   
    47. D(H   9,C   2,C   0,H   4)    167.28 -0.002186    2.44    169.72   
[...]

             **** THE GBW FILE WAS UPDATED (orca3.gbw) ****
             **** DENSITY FILE WAS UPDATED (orca3.scfp) ****
             **** ENERGY FILE WAS UPDATED (orca3.en.tmp) ****
             **** THE GBW FILE WAS UPDATED (orca3.gbw) ****
             **** DENSITY FILE WAS UPDATED (orca3.scfp) ****
----------------
ORBITAL ENERGIES
----------------
                 SPIN UP ORBITALS
  NO   OCC          E(Eh)            E(eV) 
   0   1.0000     -10.188360      -277.2394 
   1   1.0000     -10.179844      -277.0076 
   2   1.0000     -10.168174      -276.6901 
   3   1.0000     -10.168083      -276.6876 
   4   1.0000      -0.793636       -21.5959 
   5   1.0000      -0.671633       -18.2761 
   6   1.0000      -0.661336       -17.9959 
   7   1.0000      -0.548873       -14.9356 
   8   1.0000      -0.455900       -12.4057 
   9   1.0000      -0.439163       -11.9502 
  10   1.0000      -0.430506       -11.7147 
  11   1.0000      -0.382503       -10.4084 
  12   1.0000      -0.367449        -9.9988 
  13   1.0000      -0.347111        -9.4454 
  14   1.0000      -0.338204        -9.2030 
  15   1.0000      -0.332582        -9.0500 
  16   1.0000      -0.201471        -5.4823 
  17   0.0000       0.058841         1.6011 
  18   0.0000       0.105459         2.8697 
  19   0.0000       0.107525         2.9259 
  20   0.0000       0.108288         2.9467 
  21   0.0000       0.122961         3.3459 
  22   0.0000       0.129088         3.5127 
  23   0.0000       0.146643         3.9904 
  24   0.0000       0.167180         4.5492 
  25   0.0000       0.179750         4.8912 
  26   0.0000       0.210222         5.7204 
  27   0.0000       0.256308         6.9745 
  28   0.0000       0.258911         7.0453 
  29   0.0000       0.403608        10.9827 
  30   0.0000       0.424503        11.5513 
  31   0.0000       0.426201        11.5975 
  32   0.0000       0.445284        12.1168 
  33   0.0000       0.482134        13.1195 
  34   0.0000       0.496932        13.5222 
  35   0.0000       0.558419        15.1954 
  36   0.0000       0.609184        16.5767 
  37   0.0000       0.647424        17.6173 
  38   0.0000       0.654913        17.8211 
  39   0.0000       0.656897        17.8751 
  40   0.0000       0.663869        18.0648 
  41   0.0000       0.672156        18.2903 
  42   0.0000       0.693930        18.8828 
  43   0.0000       0.703911        19.1544 
  44   0.0000       0.707788        19.2599 
  45   0.0000       0.720544        19.6070 
  46   0.0000       0.730734        19.8843 
  47   0.0000       0.750278        20.4161 
  48   0.0000       0.757352        20.6086 
  49   0.0000       0.763398        20.7731 
  50   0.0000       0.875186        23.8150 
  51   0.0000       0.938380        25.5346 
  52   0.0000       1.055932        28.7334 
  53   0.0000       1.064433        28.9647 
  54   0.0000       1.396465        37.9997 
  55   0.0000       1.488932        40.5159 
  56   0.0000       1.680475        45.7281 
  57   0.0000       1.745162        47.4883 
  58   0.0000       1.766102        48.0581 
  59   0.0000       1.855004        50.4772 
  60   0.0000       1.914458        52.0951 
  61   0.0000       1.941217        52.8232 
  62   0.0000       1.953084        53.1461 
  63   0.0000       1.990214        54.1565 
  64   0.0000       2.060351        56.0650 
  65   0.0000       2.093080        56.9556 
  66   0.0000       2.145691        58.3872 
  67   0.0000       2.155368        58.6505 
  68   0.0000       2.161170        58.8084 
  69   0.0000       2.427343        66.0514 
  70   0.0000       2.443252        66.4843 
  71   0.0000       2.465664        67.0941 
  72   0.0000       2.675565        72.8058 
  73   0.0000       2.691415        73.2371 

                 SPIN DOWN ORBITALS
  NO   OCC          E(Eh)            E(eV) 
   0   1.0000     -10.189324      -277.2656 
   1   1.0000     -10.167796      -276.6798 
   2   1.0000     -10.167631      -276.6753 
   3   1.0000     -10.165345      -276.6131 
   4   1.0000      -0.786646       -21.4057 
   5   1.0000      -0.671013       -18.2592 
   6   1.0000      -0.637853       -17.3569 
   7   1.0000      -0.538753       -14.6602 
   8   1.0000      -0.449844       -12.2409 
   9   1.0000      -0.433472       -11.7954 
  10   1.0000      -0.428042       -11.6476 
  11   1.0000      -0.381972       -10.3940 
  12   1.0000      -0.364878        -9.9288 
  13   1.0000      -0.340510        -9.2658 
  14   1.0000      -0.331260        -9.0141 
  15   1.0000      -0.330331        -8.9888 
  16   0.0000      -0.045341        -1.2338 
  17   0.0000       0.061366         1.6698 
  18   0.0000       0.107326         2.9205 
  19   0.0000       0.108005         2.9390 
  20   0.0000       0.115507         3.1431 
  21   0.0000       0.126677         3.4471 
  22   0.0000       0.131247         3.5714 
  23   0.0000       0.148244         4.0339 
  24   0.0000       0.167181         4.5492 
  25   0.0000       0.181066         4.9271 
  26   0.0000       0.213218         5.8020 
  27   0.0000       0.256809         6.9881 
  28   0.0000       0.266886         7.2623 
  29   0.0000       0.405478        11.0336 
  30   0.0000       0.427287        11.6271 
  31   0.0000       0.432302        11.7635 
  32   0.0000       0.445847        12.1321 
  33   0.0000       0.501065        13.6347 
  34   0.0000       0.538193        14.6450 
  35   0.0000       0.585061        15.9203 
  36   0.0000       0.620236        16.8775 
  37   0.0000       0.649364        17.6701 
  38   0.0000       0.656888        17.8748 
  39   0.0000       0.661731        18.0066 
  40   0.0000       0.668310        18.1856 
  41   0.0000       0.682140        18.5620 
  42   0.0000       0.694809        18.9067 
  43   0.0000       0.707328        19.2474 
  44   0.0000       0.710661        19.3381 
  45   0.0000       0.720497        19.6057 
  46   0.0000       0.733496        19.9594 
  47   0.0000       0.753016        20.4906 
  48   0.0000       0.763853        20.7855 
  49   0.0000       0.769578        20.9413 
  50   0.0000       0.883006        24.0278 
  51   0.0000       0.941614        25.6226 
  52   0.0000       1.061048        28.8726 
  53   0.0000       1.067664        29.0526 
  54   0.0000       1.410516        38.3821 
  55   0.0000       1.489603        40.5342 
  56   0.0000       1.730246        47.0824 
  57   0.0000       1.748065        47.5673 
  58   0.0000       1.778817        48.4041 
  59   0.0000       1.869582        50.8739 
  60   0.0000       1.926437        52.4210 
  61   0.0000       1.953975        53.1704 
  62   0.0000       1.979253        53.8582 
  63   0.0000       2.012583        54.7652 
  64   0.0000       2.085027        56.7365 
  65   0.0000       2.102243        57.2049 
  66   0.0000       2.146543        58.4104 
  67   0.0000       2.161588        58.8198 
  68   0.0000       2.165539        58.9273 
  69   0.0000       2.437123        66.3175 
  70   0.0000       2.454288        66.7846 
  71   0.0000       2.468591        67.1738 
  72   0.0000       2.682270        72.9883 
  73   0.0000       2.692654        73.2708 

                    ********************************
                    * MULLIKEN POPULATION ANALYSIS *
                    ********************************

------------------------------------------
FOD BASED MULLIKEN REDUCED ORBITAL CHARGES
------------------------------------------
  0 C s       :    -0.000000  s :    -0.000000
      pz      :     0.000000  p :     0.000000
      px      :     0.000000
      py      :     0.000000
      dz2     :     0.000000  d :     0.000000
      dxz     :     0.000000
      dyz     :     0.000000
      dx2y2   :     0.000000
      dxy     :     0.000000
  1 C s       :    -0.000000  s :    -0.000000
      pz      :     0.000000  p :     0.000000
      px      :     0.000000
      py      :     0.000000
      dz2     :     0.000000  d :     0.000000
      dxz     :     0.000000
      dyz     :     0.000000
      dx2y2   :     0.000000
      dxy     :     0.000000
  2 C s       :    -0.000000  s :    -0.000000
      pz      :     0.000000  p :     0.000000
      px      :     0.000000
      py      :     0.000000
      dz2     :     0.000000  d :     0.000000
      dxz     :     0.000000
      dyz     :     0.000000
      dx2y2   :     0.000000
      dxy     :     0.000000
  3 C s       :    -0.000000  s :    -0.000000
      pz      :     0.000000  p :     0.000000
      px      :     0.000000
      py      :     0.000000
      dz2     :     0.000000  d :     0.000000
      dxz     :     0.000000
      dyz     :     0.000000
      dx2y2   :     0.000000
      dxy     :     0.000000
  4 H s       :     0.000000  s :     0.000000
  5 H s       :     0.000000  s :     0.000000
  6 H s       :     0.000000  s :     0.000000
  7 H s       :     0.000000  s :     0.000000
  8 H s       :     0.000000  s :     0.000000
  9 H s       :     0.000000  s :     0.000000
 10 H s       :     0.000000  s :     0.000000
 11 H s       :     0.000000  s :     0.000000
 12 H s       :     0.000000  s :     0.000000


                     *******************************
                     * LOEWDIN POPULATION ANALYSIS *
                     *******************************

-------------------------------------------
LOEWDIN ATOMIC CHARGES AND SPIN POPULATIONS
-------------------------------------------
   0 C :   -0.160628   -0.013494
   1 C :   -0.224042    0.979132
   2 C :   -0.307004    0.015532
   3 C :   -0.307677    0.013172
   4 H :    0.116953    0.053680
   5 H :    0.111718   -0.025624
   6 H :    0.111947   -0.025693
   7 H :    0.108888    0.000989
   8 H :    0.110013   -0.000418
   9 H :    0.110276    0.001304
  10 H :    0.109961   -0.000400
  11 H :    0.109062    0.000513
  12 H :    0.110534    0.001309

----------------------------------------------------
LOEWDIN REDUCED ORBITAL CHARGES AND SPIN POPULATIONS
----------------------------------------------------
CHARGE
  0 C s       :     2.876126  s :     2.876126
      pz      :     1.063710  p :     3.172751
      px      :     1.058825
      py      :     1.050216
      dz2     :     0.032153  d :     0.111750
      dxz     :     0.017183
      dyz     :     0.010747
      dx2y2   :     0.025010
      dxy     :     0.026657
  1 C s       :     3.017556  s :     3.017556
      pz      :     1.017126  p :     3.149476
      px      :     1.046532
      py      :     1.085817
      dz2     :     0.007413  d :     0.057010
      dxz     :     0.007670
      dyz     :     0.002842
      dx2y2   :     0.014135
      dxy     :     0.024950
  2 C s       :     2.958001  s :     2.958001
      pz      :     1.114993  p :     3.276311
      px      :     1.092275
      py      :     1.069042
      dz2     :     0.019254  d :     0.072692
      dxz     :     0.012316
      dyz     :     0.008685
      dx2y2   :     0.015824
      dxy     :     0.016613
  3 C s       :     2.957620  s :     2.957620
      pz      :     1.112145  p :     3.277306
      px      :     1.093265
      py      :     1.071896
      dz2     :     0.022184  d :     0.072751
      dxz     :     0.011741
      dyz     :     0.005913
      dx2y2   :     0.015798
      dxy     :     0.017115
  4 H s       :     0.883047  s :     0.883047
  5 H s       :     0.888282  s :     0.888282
  6 H s       :     0.888053  s :     0.888053
  7 H s       :     0.891112  s :     0.891112
  8 H s       :     0.889987  s :     0.889987
  9 H s       :     0.889724  s :     0.889724
 10 H s       :     0.890039  s :     0.890039
 11 H s       :     0.890938  s :     0.890938
 12 H s       :     0.889466  s :     0.889466

SPIN
  0 C s       :    -0.004847  s :    -0.004847
      pz      :    -0.008499  p :    -0.026162
      px      :    -0.014784
      py      :    -0.002880
      dz2     :     0.011023  d :     0.017515
      dxz     :     0.004644
      dyz     :     0.000387
      dx2y2   :     0.000964
      dxy     :     0.000498
  1 C s       :     0.039621  s :     0.039621
      pz      :     0.776004  p :     0.943371
      px      :     0.132304
      py      :     0.035063
      dz2     :    -0.001377  d :    -0.003860
      dxz     :    -0.000999
      dyz     :    -0.000133
      dx2y2   :    -0.000566
      dxy     :    -0.000785
  2 C s       :     0.005367  s :     0.005367
      pz      :     0.000827  p :     0.010277
      px      :     0.001699
      py      :     0.007751
      dz2     :     0.000058  d :    -0.000112
      dxz     :    -0.000036
      dyz     :    -0.000027
      dx2y2   :    -0.000044
      dxy     :    -0.000064
  3 C s       :     0.004467  s :     0.004467
      pz      :     0.000473  p :     0.008843
      px      :     0.001236
      py      :     0.007134
      dz2     :     0.000069  d :    -0.000139
      dxz     :    -0.000048
      dyz     :    -0.000063
      dx2y2   :    -0.000029
      dxy     :    -0.000067
  4 H s       :     0.053680  s :     0.053680
  5 H s       :    -0.025624  s :    -0.025624
  6 H s       :    -0.025693  s :    -0.025693
  7 H s       :     0.000989  s :     0.000989
  8 H s       :    -0.000418  s :    -0.000418
  9 H s       :     0.001304  s :     0.001304
 10 H s       :    -0.000400  s :    -0.000400
 11 H s       :     0.000513  s :     0.000513
 12 H s       :     0.001309  s :     0.001309


                      *****************************
                      * MAYER POPULATION ANALYSIS *
                      *****************************

  NA   - Mulliken gross atomic population
  ZA   - Total nuclear charge
  QA   - Mulliken gross atomic charge
  VA   - Mayer's total valence
  BVA  - Mayer's bonded valence
  FA   - Mayer's free valence

  ATOM       NA         ZA         QA         VA         BVA        FA
  0 C      6.0995     6.0000    -0.0995     4.1931     4.1901     0.0030
  1 C      6.2394     6.0000    -0.2394     3.8833     2.9989     0.8844
  2 C      6.2360     6.0000    -0.2360     3.9558     3.9556     0.0002
  3 C      6.2403     6.0000    -0.2403     3.9562     3.9561     0.0001
  4 H      0.9183     1.0000     0.0817     0.9340     0.9304     0.0036
  5 H      0.8987     1.0000     0.1013     0.9532     0.9503     0.0028
  6 H      0.8989     1.0000     0.1011     0.9533     0.9505     0.0028
  7 H      0.9153     1.0000     0.0847     0.9584     0.9584     0.0000
  8 H      0.9090     1.0000     0.0910     0.9555     0.9555     0.0000
  9 H      0.9113     1.0000     0.0887     0.9627     0.9627     0.0000
 10 H      0.9083     1.0000     0.0917     0.9550     0.9550     0.0000
 11 H      0.9146     1.0000     0.0854     0.9586     0.9586     0.0000
 12 H      0.9106     1.0000     0.0894     0.9626     0.9625     0.0000

  Mayer bond orders larger than 0.100000
B(  0-C ,  1-C ) :   1.0794 B(  0-C ,  2-C ) :   1.0923 B(  0-C ,  3-C ) :   1.0919 
B(  0-C ,  4-H ) :   0.8978 B(  1-C ,  5-H ) :   0.9411 B(  1-C ,  6-H ) :   0.9412 
B(  2-C ,  7-H ) :   0.9561 B(  2-C ,  8-H ) :   0.9579 B(  2-C ,  9-H ) :   0.9592 
B(  3-C , 10-H ) :   0.9580 B(  3-C , 11-H ) :   0.9568 B(  3-C , 12-H ) :   0.9588 


-------
TIMINGS
-------

Total SCF time: 0 days 0 hours 3 min 46 sec 

Total time                  ....     226.101 sec
Sum of individual times     ....     177.258 sec  ( 78.4%)

Fock matrix formation       ....     156.727 sec  ( 69.3%)
  XC integration            ....      81.159 sec  ( 51.8% of F)
    Basis function eval.    ....       0.945 sec  (  1.2% of XC)
    Density eval.           ....       0.655 sec  (  0.8% of XC)
    XC-Functional eval.     ....       0.451 sec  (  0.6% of XC)
    XC-Potential eval.      ....       0.836 sec  (  1.0% of XC)
Diagonalization             ....       2.436 sec  (  1.1%)
Density matrix formation    ....       9.113 sec  (  4.0%)
Population analysis         ....       4.599 sec  (  2.0%)
Initial guess               ....       0.003 sec  (  0.0%)
Orbital Transformation      ....       0.000 sec  (  0.0%)
Orbital Orthonormalization  ....       0.001 sec  (  0.0%)
DIIS solution               ....       1.083 sec  (  0.5%)
Grid generation             ....       3.296 sec  (  1.5%)


-------------------------------------------------------------------------------
                          DFT DISPERSION CORRECTION                            
                                                                               
                              DFTD3 V3.1  Rev 1                                
                          USING Becke-Johnson damping                          
-------------------------------------------------------------------------------
The B3LYP functional is recognized
Active option DFTDOPT                   ...         4   

molecular C6(AA) [au] = 1132.637980 


            DFT-D V3
 parameters
 s6 scaling factor         :     1.0000 
 a1 scaling factor         :     0.3981 
 s8 scaling factor         :     1.9889 
 a2 scaling factor         :     4.4211 
 ad hoc parameters k1-k3   :    16.0000     1.3333    -4.0000 

 Edisp/kcal,au: -9.021446224207  -0.014376588139 
 E6   /kcal   :  -4.465844208 
 E8   /kcal   :  -4.555602016 
 % E8         :  50.497469060 

-------------------------   ----------------
Dispersion correction           -0.014376588
-------------------------   ----------------


-------------------------   --------------------
FINAL SINGLE POINT ENERGY      -157.545302605365
-------------------------   --------------------

                                *** OPTIMIZATION RUN DONE ***

                            ***************************************
                            *     ORCA property calculations      *
                            ***************************************

                                    ---------------------
                                    Active property flags
                                    ---------------------
   (+) Dipole Moment


------------------------------------------------------------------------------
                       ORCA ELECTRIC PROPERTIES CALCULATION
------------------------------------------------------------------------------

Dipole Moment Calculation                       ... on
Quadrupole Moment Calculation                   ... off
Polarizability Calculation                      ... off
GBWName                                         ... orca3.gbw
Electron density file                           ... orca3.scfp
The origin for moment calculation is the CENTER OF MASS  = ( 0.047575,  0.050744 -0.336857)

-------------
DIPOLE MOMENT
-------------
                                X             Y             Z
Electronic contribution:     -1.16510       0.01259      -0.22668
Nuclear contribution   :      1.20853      -0.00318       0.12671
                        -----------------------------------------
Total Dipole Moment    :      0.04343       0.00941      -0.09998
                        -----------------------------------------
Magnitude (a.u.)       :      0.10941
Magnitude (Debye)      :      0.27809



--------------------
Rotational spectrum 
--------------------
 
Rotational constants in cm-1:     0.278869     0.262017     0.152985 
Rotational constants in MHz :  8360.267689  7855.065766  4586.364616 

 Dipole components along the rotational axes: 
x,y,z [a.u.] :    -0.001277    -0.054522    -0.094847 
x,y,z [Debye]:    -0.003247    -0.138584    -0.241081 

 

Timings for individual modules:

Sum of individual times         ...     7829.181 sec (= 130.486 min)
GTO integral calculation        ...      170.922 sec (=   2.849 min)   2.2 %
SCF iterations                  ...     7450.431 sec (= 124.174 min)  95.2 %
SCF Gradient evaluation         ...      113.606 sec (=   1.893 min)   1.5 %
Geometry relaxation             ...       94.223 sec (=   1.570 min)   1.2 %
                             ****ORCA TERMINATED NORMALLY****
TOTAL RUN TIME: 0 days 2 hours 15 minutes 43 seconds 910 msec
