
                                 *****************
                                 * O   R   C   A *
                                 *****************

           --- An Ab Initio, DFT and Semiempirical electronic structure package ---

                  #######################################################
                  #                        -***-                        #
                  #          Department of theory and spectroscopy      #
                  #               Directorship: Frank Neese             #
                  #        Max Planck Institute fuer Kohlenforschung    #
                  #                Kaiser Wilhelm Platz 1               #
                  #                 D-45470 Muelheim/Ruhr               #
                  #                      Germany                        #
                  #                                                     #
                  #                  All rights reserved                #
                  #                        -***-                        #
                  #######################################################


                         Program Version 4.2.1 -  RELEASE  -


 With contributions from (in alphabetic order):
   Daniel Aravena         : Magnetic Suceptibility
   Michael Atanasov       : Ab Initio Ligand Field Theory (pilot matlab implementation)
   Alexander A. Auer      : GIAO ZORA, VPT2
   Ute Becker             : Parallelization
   Giovanni Bistoni       : ED, misc. LED, open-shell LED, HFLD
   Martin Brehm           : Molecular dynamics
   Dmytro Bykov           : SCF Hessian
   Vijay G. Chilkuri      : MRCI spin determinant printing, contributions to CSF-ICE
   Dipayan Datta          : RHF DLPNO-CCSD density
   Achintya Kumar Dutta   : EOM-CC, STEOM-CC
   Dmitry Ganyushin       : Spin-Orbit,Spin-Spin,Magnetic field MRCI
   Miquel Garcia          : C-PCM Hessian, Gaussian charge scheme
   Yang Guo               : DLPNO-NEVPT2, CIM, IAO-localization
   Andreas Hansen         : Spin unrestricted coupled pair/coupled cluster methods
   Benjamin Helmich-Paris : CASSCF linear response (MC-RPA)
   Lee Huntington         : MR-EOM, pCC
   Robert Izsak           : Overlap fitted RIJCOSX, COSX-SCS-MP3, EOM
   Christian Kollmar      : KDIIS, OOCD, Brueckner-CCSD(T), CCSD density
   Simone Kossmann        : Meta GGA functionals, TD-DFT gradient, OOMP2, MP2 Hessian
   Martin Krupicka        : AUTO-CI
   Lucas Lang             : DCDCAS
   Dagmar Lenk            : GEPOL surface, SMD
   Dimitrios Liakos       : Extrapolation schemes; Compound Job, initial MDCI parallelization
   Dimitrios Manganas     : Further ROCIS development; embedding schemes
   Dimitrios Pantazis     : SARC Basis sets
   Taras Petrenko         : DFT Hessian,TD-DFT gradient, ASA, ECA, R-Raman, ABS, FL, XAS/XES, NRVS
   Peter Pinski           : DLPNO-MP2, DLPNO-MP2 Gradient
   Christoph Reimann      : Effective Core Potentials
   Marius Retegan         : Local ZFS, SOC
   Christoph Riplinger    : Optimizer, TS searches, QM/MM, DLPNO-CCSD(T), (RO)-DLPNO pert. Triples
   Tobias Risthaus        : Range-separated hybrids, TD-DFT gradient, RPA, STAB
   Michael Roemelt        : Original ROCIS implementation
   Masaaki Saitow         : Open-shell DLPNO-CCSD energy and density
   Barbara Sandhoefer     : DKH picture change effects
   Avijit Sen             : IP-ROCIS
   Kantharuban Sivalingam : CASSCF convergence, NEVPT2, FIC-MRCI
   Bernardo de Souza      : ESD, SOC TD-DFT
   Georgi Stoychev        : AutoAux, RI-MP2 NMR
   Willem Van den Heuvel  : Paramagnetic NMR
   Boris Wezisla          : Elementary symmetry handling
   Frank Wennmohs         : Technical directorship


 We gratefully acknowledge several colleagues who have allowed us to
 interface, adapt or use parts of their codes:
   Stefan Grimme, W. Hujo, H. Kruse,             : VdW corrections, initial TS optimization,
                  C. Bannwarth                     DFT functionals, gCP, sTDA/sTD-DF
   Ed Valeev, F. Pavosevic, A. Kumar             : LibInt (2-el integral package), F12 methods
   Garnet Chan, S. Sharma, J. Yang, R. Olivares  : DMRG
   Ulf Ekstrom                                   : XCFun DFT Library
   Mihaly Kallay                                 : mrcc  (arbitrary order and MRCC methods)
   Andreas Klamt, Michael Diedenhofen            : otool_cosmo (COSMO solvation model)
   Jiri Pittner, Ondrej Demel                    : Mk-CCSD
   Frank Weinhold                                : gennbo (NPA and NBO analysis)
   Christopher J. Cramer and Donald G. Truhlar   : smd solvation model
   Lars Goerigk                                  : TD-DFT with DH, B97 family of functionals
   V. Asgeirsson, H. Jonsson                     : NEB implementation
   FAccTs GmbH                                   : IRC, NEB, NEB-TS, Multilevel, MM, QM/MM, CI optimization
   S Lehtola, MJT Oliveira, MAL Marques          : LibXC Library


 Your calculation uses the libint2 library for the computation of 2-el integrals
 For citations please refer to: http://libint.valeyev.net

 Your ORCA version has been built with support for libXC version: 4.2.3
 For citations please refer to: https://tddft.org/programs/libxc/

 This ORCA versions uses:
   CBLAS   interface :  Fast vector & matrix operations
   LAPACKE interface :  Fast linear algebra routines
   SCALAPACK package :  Parallel linear algebra routines


Your calculation utilizes the atom-pairwise dispersion correction
with the Becke-Johnson damping scheme (D3BJ)
Cite in your paper:
S.Grimme, S.Ehrlich, L.Goerigk, J Comput Chem, (2011), 32, 1456–1465 
S.Grimme, J.Antony, S.Ehrlich and H.Krieg, J.Chem.Phys., 132, (2010), 154104 
   

----- Orbital basis set information -----
Your calculation utilizes the basis: def2-SV(P)
   F. Weigend and R. Ahlrichs, Phys. Chem. Chem. Phys. 7, 3297 (2005).

----- AuxJ basis set information -----
Your calculation utilizes the auxiliary basis: def2/J
   F. Weigend, Phys. Chem. Chem. Phys. 8, 1057 (2006).

================================================================================
                                        WARNINGS
                       Please study these warnings very carefully!
================================================================================


WARNING: Geometry Optimization
  ===> : Switching off AutoStart
         For restart on a previous wavefunction, please use MOREAD

INFO   : the flag for use of LIBINT has been found!

================================================================================
                                       INPUT FILE
================================================================================
NAME = orca1.inp
|  1> ! UKS B3LYP def2-SV(P) def2/J D3BJ Opt
|  2> %scf Convergence VeryTight
|  3> SmearTemp 2000
|  4> maxiter 500
|  5> end
|  6> *xyz 0 2
|  7> C -0.058653 0.008836 0.382777
|  8> C 1.433147 0.008372 0.17417
|  9> C -0.698141 -1.228168 -0.179633
| 10> C -0.72701 1.227936 -0.231001
| 11> H -0.228406 0.110387 1.48317
| 12> H 1.721143 0.922911 -0.371975
| 13> H 2.007738 -0.011055 1.1152
| 14> H -1.438439 -1.031604 -0.969732
| 15> H -1.230175 -1.724483 0.642428
| 16> H 0.105594 -1.861341 -0.634424
| 17> H -1.765417 1.211095 0.135288
| 18> H -0.15263 2.100541 0.173099
| 19> H -0.705799 1.158443 -1.324284
| 20> *
| 21> 
| 22>                          ****END OF INPUT****
================================================================================

                       *****************************
                       * Geometry Optimization Run *
                       *****************************

Geometry optimization settings:
Update method            Update   .... BFGS
Choice of coordinates    CoordSys .... Z-matrix Internals
Initial Hessian          InHess   .... Almoef's Model

Convergence Tolerances:
Energy Change            TolE     ....  5.0000e-06 Eh
Max. Gradient            TolMAXG  ....  3.0000e-04 Eh/bohr
RMS Gradient             TolRMSG  ....  1.0000e-04 Eh/bohr
Max. Displacement        TolMAXD  ....  4.0000e-03 bohr
RMS Displacement         TolRMSD  ....  2.0000e-03 bohr
Strict Convergence                ....  False
------------------------------------------------------------------------------
                        ORCA OPTIMIZATION COORDINATE SETUP
------------------------------------------------------------------------------

The optimization will be done in new redundant internal coordinates
Making redundant internal coordinates   ...  (new redundants) done
Evaluating the initial hessian          ...  (Almloef) done
Evaluating the coordinates              ...  done
Calculating the B-matrix                .... done
Calculating the G-matrix                .... done
Diagonalizing the G-matrix              .... done
The first mode is                       ....   24
The number of degrees of freedom        ....   33

    -----------------------------------------------------------------
                    Redundant Internal Coordinates


    -----------------------------------------------------------------
         Definition                    Initial Value    Approx d2E/dq
    -----------------------------------------------------------------
      1. B(C   1,C   0)                  1.5063         0.407536   
      2. B(C   2,C   0)                  1.5018         0.414338   
      3. B(C   3,C   0)                  1.5197         0.387915   
      4. B(H   4,C   0)                  1.1180         0.324864   
      5. B(H   5,C   1)                  1.1034         0.342742   
      6. B(H   6,C   1)                  1.1028         0.343615   
      7. B(H   7,C   2)                  1.1004         0.346570   
      8. B(H   8,C   2)                  1.0978         0.349923   
      9. B(H   9,C   2)                  1.1197         0.322876   
     10. B(H  10,C   3)                  1.1012         0.345527   
     11. B(H  11,C   3)                  1.1201         0.322391   
     12. B(H  12,C   3)                  1.0957         0.352645   
     13. A(C   1,C   0,H   4)          106.6605         0.323470   
     14. A(C   2,C   0,H   4)          112.2559         0.324350   
     15. A(C   1,C   0,C   2)          111.6905         0.375444   
     16. A(C   1,C   0,C   3)          112.3250         0.371204   
     17. A(C   2,C   0,C   3)          108.7974         0.372263   
     18. A(C   3,C   0,H   4)          104.9433         0.320866   
     19. A(H   5,C   1,H   6)          107.5156         0.286489   
     20. A(C   0,C   1,H   6)          113.4443         0.326467   
     21. A(C   0,C   1,H   5)          109.0729         0.326330   
     22. A(H   7,C   2,H   9)          106.9945         0.284216   
     23. A(C   0,C   2,H   9)          108.1936         0.324023   
     24. A(H   7,C   2,H   8)          107.0002         0.287803   
     25. A(C   0,C   2,H   8)          107.3567         0.328342   
     26. A(H   8,C   2,H   9)          113.3516         0.284642   
     27. A(C   0,C   2,H   7)          114.0925         0.327821   
     28. A(H  11,C   3,H  12)          113.5442         0.284919   
     29. A(H  10,C   3,H  12)          110.4363         0.288016   
     30. A(C   0,C   3,H  12)          110.0957         0.325212   
     31. A(H  10,C   3,H  11)          112.0519         0.284017   
     32. A(C   0,C   3,H  11)          104.6967         0.320465   
     33. A(C   0,C   3,H  10)          105.5505         0.324125   
     34. D(H   6,C   1,C   0,C   3)    120.9754         0.012307   
     35. D(H   6,C   1,C   0,H   4)      6.5277         0.012307   
     36. D(H   6,C   1,C   0,C   2)   -116.4627         0.012307   
     37. D(H   5,C   1,C   0,H   4)   -113.2766         0.012307   
     38. D(H   5,C   1,C   0,C   2)    123.7330         0.012307   
     39. D(H   5,C   1,C   0,C   3)      1.1711         0.012307   
     40. D(H   7,C   2,C   0,C   1)   -119.3687         0.013592   
     41. D(H   9,C   2,C   0,C   1)     -0.4227         0.013592   
     42. D(H   8,C   2,C   0,H   4)      2.5052         0.013592   
     43. D(H   8,C   2,C   0,C   1)    122.2514         0.013592   
     44. D(H   7,C   2,C   0,H   4)    120.8851         0.013592   
     45. D(H   7,C   2,C   0,C   3)      5.1883         0.013592   
     46. D(H   9,C   2,C   0,C   3)    124.1343         0.013592   
     47. D(H   9,C   2,C   0,H   4)   -120.1689         0.013592   
     48. D(H   8,C   2,C   0,C   3)   -113.1916         0.013592   
     49. D(H  12,C   3,C   0,H   4)   -173.8620         0.011969   
     50. D(H  12,C   3,C   0,C   1)     70.6466         0.011969   
     51. D(H  11,C   3,C   0,H   4)     63.7466         0.011969   
     52. D(H  11,C   3,C   0,C   2)   -175.9267         0.011969   
     53. D(H  11,C   3,C   0,C   1)    -51.7447         0.011969   
     54. D(H  10,C   3,C   0,H   4)    -54.6700         0.011969   
     55. D(H  12,C   3,C   0,C   2)    -53.5354         0.011969   
     56. D(H  10,C   3,C   0,C   2)     65.6566         0.011969   
     57. D(H  10,C   3,C   0,C   1)   -170.1614         0.011969   
    -----------------------------------------------------------------

Number of atoms                         .... 13
Number of degrees of freedom            .... 57

Time needed for optimization step       :     3.04 sec

         *************************************************************
         *                GEOMETRY OPTIMIZATION CYCLE   1            *
         *************************************************************
---------------------------------
CARTESIAN COORDINATES (ANGSTROEM)
---------------------------------
  C     -0.058653    0.008836    0.382777
  C      1.433147    0.008372    0.174170
  C     -0.698141   -1.228168   -0.179633
  C     -0.727010    1.227936   -0.231001
  H     -0.228406    0.110387    1.483170
  H      1.721143    0.922911   -0.371975
  H      2.007738   -0.011055    1.115200
  H     -1.438439   -1.031604   -0.969732
  H     -1.230175   -1.724483    0.642428
  H      0.105594   -1.861341   -0.634424
  H     -1.765417    1.211095    0.135288
  H     -0.152630    2.100541    0.173099
  H     -0.705799    1.158443   -1.324284

----------------------------
CARTESIAN COORDINATES (A.U.)
----------------------------
  NO LB      ZA    FRAG     MASS         X           Y           Z
   0 C     6.0000    0    12.011   -0.110838    0.016698    0.723344
   1 C     6.0000    0    12.011    2.708255    0.015821    0.329134
   2 C     6.0000    0    12.011   -1.319295   -2.320901   -0.339457
   3 C     6.0000    0    12.011   -1.373850    2.320463   -0.436529
   4 H     1.0000    0     1.008   -0.431625    0.208601    2.802785
   5 H     1.0000    0     1.008    3.252489    1.744049   -0.702931
   6 H     1.0000    0     1.008    3.794075   -0.020891    2.107423
   7 H     1.0000    0     1.008   -2.718256   -1.949449   -1.832528
   8 H     1.0000    0     1.008   -2.324694   -3.258801    1.214013
   9 H     1.0000    0     1.008    0.199544   -3.517425   -1.198888
  10 H     1.0000    0     1.008   -3.336155    2.288638    0.255657
  11 H     1.0000    0     1.008   -0.288429    3.969447    0.327110
  12 H     1.0000    0     1.008   -1.333767    2.189140   -2.502534

--------------------------------
INTERNAL COORDINATES (ANGSTROEM)
--------------------------------
 C      0   0   0     0.000000000000     0.00000000     0.00000000
 C      1   0   0     1.506314819599     0.00000000     0.00000000
 C      1   2   0     1.501808511848   111.69050797     0.00000000
 C      1   2   3     1.519746466597   112.32502239   237.43810332
 H      1   2   3     1.118031055498   106.66052537   122.99044458
 H      2   1   3     1.103448068358   109.07285213   123.73299147
 H      2   1   3     1.102755497157   113.44425386   243.53725622
 H      3   1   2     1.100424901891   114.09250562   240.63129681
 H      3   1   2     1.097803736604   107.35673267   122.25137045
 H      3   1   2     1.119702126387   108.19361821   359.57728083
 H      4   1   2     1.101244908479   105.55052393   189.83862021
 H      4   1   2     1.120111012545   104.69672533   308.25527478
 H      4   1   2     1.095694711888   110.09571307    70.64659644

---------------------------
INTERNAL COORDINATES (A.U.)
---------------------------
 C      0   0   0     0.000000000000     0.00000000     0.00000000
 C      1   0   0     2.846522480510     0.00000000     0.00000000
 C      1   2   0     2.838006792985   111.69050797     0.00000000
 C      1   2   3     2.871904614862   112.32502239   237.43810332
 H      1   2   3     2.112772504111   106.66052537   122.99044458
 H      2   1   3     2.085214652200   109.07285213   123.73299147
 H      2   1   3     2.083905882303   113.44425386   243.53725622
 H      3   1   2     2.079501695520   114.09250562   240.63129681
 H      3   1   2     2.074548410977   107.35673267   122.25137045
 H      3   1   2     2.115930370440   108.19361821   359.57728083
 H      4   1   2     2.081051283401   105.55052393   189.83862021
 H      4   1   2     2.116703053300   104.69672533   308.25527478
 H      4   1   2     2.070562931854   110.09571307    70.64659644

---------------------
BASIS SET INFORMATION
---------------------
There are 2 groups of distinct atoms

 Group   1 Type C   : 7s4p1d contracted to 3s2p1d pattern {511/31/1}
 Group   2 Type H   : 4s contracted to 2s pattern {31}

Atom   0C    basis set group =>   1
Atom   1C    basis set group =>   1
Atom   2C    basis set group =>   1
Atom   3C    basis set group =>   1
Atom   4H    basis set group =>   2
Atom   5H    basis set group =>   2
Atom   6H    basis set group =>   2
Atom   7H    basis set group =>   2
Atom   8H    basis set group =>   2
Atom   9H    basis set group =>   2
Atom  10H    basis set group =>   2
Atom  11H    basis set group =>   2
Atom  12H    basis set group =>   2
---------------------------------
AUXILIARY/J BASIS SET INFORMATION
---------------------------------
There are 2 groups of distinct atoms

 Group   1 Type C   : 12s5p4d2f1g contracted to 6s4p3d1f1g pattern {711111/2111/211/2/1}
 Group   2 Type H   : 5s2p1d contracted to 3s1p1d pattern {311/2/1}

Atom   0C    basis set group =>   1
Atom   1C    basis set group =>   1
Atom   2C    basis set group =>   1
Atom   3C    basis set group =>   1
Atom   4H    basis set group =>   2
Atom   5H    basis set group =>   2
Atom   6H    basis set group =>   2
Atom   7H    basis set group =>   2
Atom   8H    basis set group =>   2
Atom   9H    basis set group =>   2
Atom  10H    basis set group =>   2
Atom  11H    basis set group =>   2
Atom  12H    basis set group =>   2
------------------------------------------------------------------------------
                           ORCA GTO INTEGRAL CALCULATION
------------------------------------------------------------------------------

                         BASIS SET STATISTICS AND STARTUP INFO

 # of primitive gaussian shells          ...   84
 # of primitive gaussian functions       ...  132
 # of contracted shells                  ...   42
 # of contracted basis functions         ...   74
 Highest angular momentum                ...    2
 Maximum contraction depth               ...    5
 Integral package used                   ... LIBINT
 Integral threshhold            Thresh   ...  1.000e-12
 Primitive cut-off              TCut     ...  1.000e-14


------------------------------ INTEGRAL EVALUATION ----------------------------


 * One electron integrals 
 Pre-screening matrix                    ... done
 Shell pair data                         ... done (   0.000 sec)

-------------------------------------------------------------------------------
                                 ORCA SCF
-------------------------------------------------------------------------------

------------
SCF SETTINGS
------------
Hamiltonian:
 Density Functional     Method          .... DFT(GTOs)
 Exchange Functional    Exchange        .... B88
   X-Alpha parameter    XAlpha          ....  0.666667
   Becke's b parameter  XBeta           ....  0.004200
 Correlation Functional Correlation     .... LYP
 LDA part of GGA corr.  LDAOpt          .... VWN-5
 Gradients option       PostSCFGGA      .... off
 Hybrid DFT is turned on
   Fraction HF Exchange ScalHFX         ....  0.200000
   Scaling of DF-GGA-X  ScalDFX         ....  0.720000
   Scaling of DF-GGA-C  ScalDFC         ....  0.810000
   Scaling of DF-LDA-C  ScalLDAC        ....  1.000000
   Perturbative correction              ....  0.000000
   Density functional embedding theory  .... OFF
   NL short-range parameter             ....  4.800000


General Settings:
 Integral files         IntName         .... orca1
 Hartree-Fock type      HFTyp           .... UHF
 Total Charge           Charge          ....    0
 Multiplicity           Mult            ....    2
 Number of Electrons    NEL             ....   33
 Basis Dimension        Dim             ....   74
 Nuclear Repulsion      ENuc            ....    127.3890269754 Eh

Convergence Acceleration:
 DIIS                   CNVDIIS         .... on
   Start iteration      DIISMaxIt       ....    12
   Startup error        DIISStart       ....  0.200000
   # of expansion vecs  DIISMaxEq       ....     5
   Bias factor          DIISBfac        ....   1.050
   Max. coefficient     DIISMaxC        ....  10.000
 Newton-Raphson         CNVNR           .... off
 SOSCF                  CNVSOSCF        .... off
 Level Shifting         CNVShift        .... on
   Level shift para.    LevelShift      ....    0.2500
   Turn off err/grad.   ShiftErr        ....    0.0010
 Zerner damping         CNVZerner       .... off
 Static damping         CNVDamp         .... on
   Fraction old density DampFac         ....    0.7000
   Max. Damping (<1)    DampMax         ....    0.9800
   Min. Damping (>=0)   DampMin         ....    0.0000
   Turn off err/grad.   DampErr         ....    0.1000
 Fernandez-Rico         CNVRico         .... off

SCF Procedure:
 Maximum # iterations   MaxIter         ....   500
 SCF integral mode      SCFMode         .... Direct
   Integral package                     .... LIBINT
 Reset frequency        DirectResetFreq ....    20
 Integral Threshold     Thresh          ....  1.000e-12 Eh
 Primitive CutOff       TCut            ....  1.000e-14 Eh

Convergence Tolerance:
 Convergence Check Mode ConvCheckMode   .... Total+1el-Energy
 Convergence forced     ConvForced      .... 0
 Energy Change          TolE            ....  1.000e-09 Eh
 1-El. energy change                    ....  1.000e-06 Eh
 DIIS Error             TolErr          ....  1.000e-08


Diagonalization of the overlap matrix:
Smallest eigenvalue                        ... 1.699e-03
Time for diagonalization                   ...    0.001 sec
Threshold for overlap eigenvalues          ... 1.000e-08
Number of eigenvalues below threshold      ... 0
Time for construction of square roots      ...    0.468 sec
Total time needed                          ...    0.469 sec

-------------------
DFT GRID GENERATION
-------------------

General Integration Accuracy     IntAcc      ...  4.340
Radial Grid Type                 RadialGrid  ... Gauss-Chebyshev
Angular Grid (max. acc.)         AngularGrid ... Lebedev-110
Angular grid pruning method      GridPruning ... 3 (G Style)
Weight generation scheme         WeightScheme... Becke
Basis function cutoff            BFCut       ...    1.0000e-12
Integration weight cutoff        WCut        ...    1.0000e-14
Grids for H and He will be reduced by one unit

# of grid points (after initial pruning)     ...  13770 (   0.0 sec)
# of grid points (after weights+screening)   ...  12880 (   0.0 sec)
nearest neighbour list constructed           ...    0.0 sec
Grid point re-assignment to atoms done       ...    0.0 sec
Grid point division into batches done        ...    0.0 sec
Reduced shell lists constructed in    0.1 sec

Total number of grid points                  ...    12880
Total number of batches                      ...      208
Average number of points per batch           ...       61
Average number of grid points per atom       ...      991
Average number of shells per batch           ...    37.31 (88.82%)
Average number of basis functions per batch  ...    66.57 (89.96%)
Average number of large shells per batch     ...    32.66 (87.53%)
Average number of large basis fcns per batch ...    57.78 (86.80%)
Maximum spatial batch extension              ...  20.28, 19.66, 20.55 au
Average spatial batch extension              ...   4.05,  3.96,  3.91 au

Time for grid setup =    2.131 sec

------------------------------
INITIAL GUESS: MODEL POTENTIAL
------------------------------
Loading Hartree-Fock densities                     ... done
Calculating cut-offs                               ... done
Setting up the integral package                    ... done
Initializing the effective Hamiltonian             ... done
Starting the Coulomb interaction                   ... done (   0.0 sec)
Reading the grid                                   ... done
Mapping shells                                     ... done
Starting the XC term evaluation                    ... done (   0.1 sec)
  promolecular density results
     # of electrons  =     33.001546707
     EX              =    -23.193914451
     EC              =     -1.032830143
     EX+EC           =    -24.226744593
Transforming the Hamiltonian                       ... done (   0.1 sec)
Diagonalizing the Hamiltonian                      ... done (   0.0 sec)
Back transforming the eigenvectors                 ... done (   0.0 sec)
Now organizing SCF variables                       ... done
                      ------------------
                      INITIAL GUESS DONE (   2.4 sec)
                      ------------------
--------------
SCF ITERATIONS
--------------
ITER       Energy         Delta-E        Max-DP      RMS-DP      [F,P]     Damp
               ***  Starting incremental Fock matrix formation  ***
  0   -157.3509760571   0.000000000000 0.04339889  0.00211369  0.1678392 0.7000
  1   -157.4205969890  -0.069620931848 0.02670904  0.00152014  0.0862953 0.7000
                               ***Turning on DIIS***
  2   -157.4487942747  -0.028197285750 0.03728253  0.00256728  0.0313088 0.0000
  3   -157.4873734943  -0.038579219581 0.01822598  0.00105857  0.0479779 0.0000
  4   -157.4997740387  -0.012400544399 0.00567319  0.00032682  0.0092601 0.0000
  5   -157.5004180231  -0.000643984428 0.00177472  0.00011654  0.0022699 0.0000
  6   -157.5004712552  -0.000053232109 0.00166813  0.00007941  0.0008214 0.0000
  7   -157.5004823628  -0.000011107604 0.00041320  0.00001443  0.0001994 0.0000
  8   -157.5004833168  -0.000000953979 0.00015136  0.00000522  0.0000856 0.0000
  9   -157.5004834425  -0.000000125723 0.00007002  0.00000227  0.0000536 0.0000
 10   -157.5004834702  -0.000000027690 0.00002467  0.00000087  0.0000110 0.0000
 11   -157.5004834753  -0.000000005107 0.00001205  0.00000049  0.0000031 0.0000
 12   -157.5004834766  -0.000000001261 0.00000323  0.00000012  0.0000014 0.0000
 13   -157.5004834767  -0.000000000127 0.00000291  0.00000012  0.0000011 0.0000
 14   -157.5004834768  -0.000000000077 0.00000086  0.00000003  0.0000004 0.0000
 15   -157.5004834768   0.000000000000 0.00000069  0.00000003  0.0000001 0.0000
 16   -157.5004834768   0.000000000002 0.00000006  0.00000000  0.0000001 0.0000
                 **** Energy Check signals convergence ****

 Fermi smearing  (ALPHA): E(HOMO(Eh)) = -0.308821 MUE = -0.089459 gap=   7.744 eV
 Fermi smearing   (BETA): E(HOMO(Eh)) = -0.306148 MUE = -0.186064 gap=   6.522 eV

N_FOD(alpha) =  0.000000
 N_FOD(beta) =  0.000000
       N_FOD =  0.000000

               *****************************************************
               *                     SUCCESS                       *
               *           SCF CONVERGED AFTER  17 CYCLES          *
               *****************************************************

Setting up the final grid:

General Integration Accuracy     IntAcc      ...  4.670
Radial Grid Type                 RadialGrid  ... Gauss-Chebyshev
Angular Grid (max. acc.)         AngularGrid ... Lebedev-302
Angular grid pruning method      GridPruning ... 3 (G Style)
Weight generation scheme         WeightScheme... Becke
Basis function cutoff            BFCut       ...    1.0000e-12
Integration weight cutoff        WCut        ...    1.0000e-14
Grids for H and He will be reduced by one unit

# of grid points (after initial pruning)     ...  55394 (   0.0 sec)
# of grid points (after weights+screening)   ...  51168 (   0.1 sec)
nearest neighbour list constructed           ...    0.0 sec
Grid point re-assignment to atoms done       ...    0.0 sec
Grid point division into batches done        ...    0.2 sec
Reduced shell lists constructed in    0.3 sec

Total number of grid points                  ...    51168
Total number of batches                      ...      805
Average number of points per batch           ...       63
Average number of grid points per atom       ...     3936
Average number of shells per batch           ...    35.11 (83.59%)
Average number of basis functions per batch  ...    62.43 (84.37%)
Average number of large shells per batch     ...    30.12 (85.79%)
Average number of large basis fcns per batch ...    53.00 (84.88%)
Maximum spatial batch extension              ...  17.56, 18.99, 19.88 au
Average spatial batch extension              ...   2.65,  2.69,  2.60 au

Final grid set up in    1.9 sec
Final integration                            ... done (  13.0 sec)
Change in XC energy                          ...     0.000302955
Integrated number of electrons               ...    32.999986867
Previous integrated no of electrons          ...    33.004296707

----------------
TOTAL SCF ENERGY
----------------

Total Energy       :         -157.50018052 Eh           -4285.79780 eV

Components:
Nuclear Repulsion  :          127.38902698 Eh            3466.43165 eV
Electronic Energy  :         -284.88920750 Eh           -7752.22945 eV
One Electron Energy:         -462.27199200 Eh          -12579.06041 eV
Two Electron Energy:          177.38278451 Eh            4826.83096 eV

Virial components:
Potential Energy   :         -313.45520163 Eh           -8529.54967 eV
Kinetic Energy     :          155.95502110 Eh            4243.75187 eV
Virial Ratio       :            2.00990772


DFT components:
N(Alpha)           :       16.999998751919 electrons
N(Beta)            :       15.999988115291 electrons
N(Total)           :       32.999986867210 electrons
E(X)               :      -18.898044597452 Eh       
E(C)               :       -1.221634646916 Eh       
E(XC)              :      -20.119679244368 Eh       
DFET-embed. en.    :        0.000000000000 Eh       

---------------
SCF CONVERGENCE
---------------

  Last Energy change         ...   -1.1994e-11  Tolerance :   1.0000e-09
  Last MAX-Density change    ...    7.7716e-08  Tolerance :   1.0000e-08
  Last RMS-Density change    ...    3.8551e-09  Tolerance :   1.0000e-09
  Last DIIS Error            ...    1.9834e-08  Tolerance :   1.0000e-08

             **** THE GBW FILE WAS UPDATED (orca1.gbw) ****
             **** DENSITY FILE WAS UPDATED (orca1.scfp) ****
             **** ENERGY FILE WAS UPDATED (orca1.en.tmp) ****
             **** THE GBW FILE WAS UPDATED (orca1.gbw) ****
             **** DENSITY FILE WAS UPDATED (orca1.scfp) ****
----------------
ORBITAL ENERGIES
----------------
                 SPIN UP ORBITALS
  NO   OCC          E(Eh)            E(eV) 
   0   1.0000     -10.185615      -277.1647 
   1   1.0000     -10.180083      -277.0141 
   2   1.0000     -10.168323      -276.6941 
   3   1.0000     -10.164332      -276.5855 
   4   1.0000      -0.804506       -21.8917 
   5   1.0000      -0.673598       -18.3295 
   6   1.0000      -0.666974       -18.1493 
   7   1.0000      -0.542478       -14.7616 
   8   1.0000      -0.467960       -12.7338 
   9   1.0000      -0.430794       -11.7225 
  10   1.0000      -0.425192       -11.5701 
  11   1.0000      -0.393165       -10.6986 
  12   1.0000      -0.383437       -10.4339 
  13   1.0000      -0.339964        -9.2509 
  14   1.0000      -0.329462        -8.9651 
  15   1.0000      -0.308821        -8.4034 
  16   1.0000      -0.231748        -6.3062 
  17   0.0000       0.052830         1.4376 
  18   0.0000       0.086818         2.3624 
  19   0.0000       0.106459         2.8969 
  20   0.0000       0.120783         3.2867 
  21   0.0000       0.124739         3.3943 
  22   0.0000       0.138007         3.7554 
  23   0.0000       0.138623         3.7721 
  24   0.0000       0.155654         4.2356 
  25   0.0000       0.173150         4.7117 
  26   0.0000       0.228238         6.2107 
  27   0.0000       0.245303         6.6750 
  28   0.0000       0.286807         7.8044 
  29   0.0000       0.402122        10.9423 
  30   0.0000       0.436989        11.8911 
  31   0.0000       0.461451        12.5567 
  32   0.0000       0.505896        13.7661 
  33   0.0000       0.526978        14.3398 
  34   0.0000       0.534644        14.5484 
  35   0.0000       0.566173        15.4063 
  36   0.0000       0.584349        15.9010 
  37   0.0000       0.607273        16.5247 
  38   0.0000       0.622900        16.9500 
  39   0.0000       0.664464        18.0810 
  40   0.0000       0.667329        18.1590 
  41   0.0000       0.682605        18.5746 
  42   0.0000       0.702015        19.1028 
  43   0.0000       0.705728        19.2038 
  44   0.0000       0.713454        19.4141 
  45   0.0000       0.714597        19.4452 
  46   0.0000       0.724639        19.7184 
  47   0.0000       0.731587        19.9075 
  48   0.0000       0.744860        20.2687 
  49   0.0000       0.749621        20.3982 
  50   0.0000       0.790524        21.5113 
  51   0.0000       0.879065        23.9206 
  52   0.0000       0.968808        26.3626 
  53   0.0000       1.093670        29.7603 
  54   0.0000       1.379712        37.5439 
  55   0.0000       1.388417        37.7808 
  56   0.0000       1.757790        47.8319 
  57   0.0000       1.775803        48.3221 
  58   0.0000       1.815437        49.4005 
  59   0.0000       1.839779        50.0629 
  60   0.0000       1.885309        51.3019 
  61   0.0000       1.963324        53.4248 
  62   0.0000       1.980439        53.8905 
  63   0.0000       2.027300        55.1656 
  64   0.0000       2.090136        56.8755 
  65   0.0000       2.125243        57.8308 
  66   0.0000       2.132984        58.0414 
  67   0.0000       2.166684        58.9585 
  68   0.0000       2.207844        60.0785 
  69   0.0000       2.403691        65.4078 
  70   0.0000       2.427994        66.0691 
  71   0.0000       2.491445        67.7957 
  72   0.0000       2.695201        73.3401 
  73   0.0000       2.708500        73.7020 

                 SPIN DOWN ORBITALS
  NO   OCC          E(Eh)            E(eV) 
   0   1.0000     -10.180427      -277.0235 
   1   1.0000     -10.170326      -276.7486 
   2   1.0000     -10.168043      -276.6865 
   3   1.0000     -10.163250      -276.5561 
   4   1.0000      -0.798088       -21.7171 
   5   1.0000      -0.670746       -18.2519 
   6   1.0000      -0.646602       -17.5949 
   7   1.0000      -0.534571       -14.5464 
   8   1.0000      -0.463191       -12.6041 
   9   1.0000      -0.428734       -11.6665 
  10   1.0000      -0.417862       -11.3706 
  11   1.0000      -0.392211       -10.6726 
  12   1.0000      -0.376334       -10.2406 
  13   1.0000      -0.334603        -9.1050 
  14   1.0000      -0.323243        -8.7959 
  15   1.0000      -0.306148        -8.3307 
  16   0.0000      -0.066459        -1.8084 
  17   0.0000       0.054724         1.4891 
  18   0.0000       0.089047         2.4231 
  19   0.0000       0.111031         3.0213 
  20   0.0000       0.123786         3.3684 
  21   0.0000       0.126708         3.4479 
  22   0.0000       0.139259         3.7894 
  23   0.0000       0.141641         3.8543 
  24   0.0000       0.158518         4.3135 
  25   0.0000       0.176444         4.8013 
  26   0.0000       0.230630         6.2758 
  27   0.0000       0.251735         6.8501 
  28   0.0000       0.293402         7.9839 
  29   0.0000       0.404886        11.0175 
  30   0.0000       0.440024        11.9736 
  31   0.0000       0.466848        12.7036 
  32   0.0000       0.519653        14.1405 
  33   0.0000       0.537522        14.6267 
  34   0.0000       0.562941        15.3184 
  35   0.0000       0.586095        15.9484 
  36   0.0000       0.595105        16.1936 
  37   0.0000       0.615721        16.7546 
  38   0.0000       0.631744        17.1906 
  39   0.0000       0.668911        18.2020 
  40   0.0000       0.670485        18.2448 
  41   0.0000       0.695245        18.9186 
  42   0.0000       0.704440        19.1688 
  43   0.0000       0.707973        19.2649 
  44   0.0000       0.715683        19.4747 
  45   0.0000       0.716670        19.5016 
  46   0.0000       0.727708        19.8019 
  47   0.0000       0.738068        20.0839 
  48   0.0000       0.749469        20.3941 
  49   0.0000       0.754770        20.5383 
  50   0.0000       0.794220        21.6118 
  51   0.0000       0.884346        24.0643 
  52   0.0000       0.970648        26.4127 
  53   0.0000       1.097323        29.8597 
  54   0.0000       1.388116        37.7726 
  55   0.0000       1.400275        38.1034 
  56   0.0000       1.778995        48.4089 
  57   0.0000       1.801288        49.0155 
  58   0.0000       1.818894        49.4946 
  59   0.0000       1.864878        50.7459 
  60   0.0000       1.912288        52.0360 
  61   0.0000       1.973123        53.6914 
  62   0.0000       1.989684        54.1421 
  63   0.0000       2.053336        55.8741 
  64   0.0000       2.099019        57.1172 
  65   0.0000       2.138037        58.1789 
  66   0.0000       2.145054        58.3699 
  67   0.0000       2.172072        59.1051 
  68   0.0000       2.220229        60.4155 
  69   0.0000       2.412529        65.6483 
  70   0.0000       2.431886        66.1750 
  71   0.0000       2.500402        68.0394 
  72   0.0000       2.704470        73.5924 
  73   0.0000       2.714118        73.8549 

                    ********************************
                    * MULLIKEN POPULATION ANALYSIS *
                    ********************************

------------------------------------------
FOD BASED MULLIKEN REDUCED ORBITAL CHARGES
------------------------------------------
  0 C s       :     0.000000  s :     0.000000
      pz      :     0.000000  p :     0.000000
      px      :     0.000000
      py      :     0.000000
      dz2     :     0.000000  d :     0.000000
      dxz     :     0.000000
      dyz     :     0.000000
      dx2y2   :     0.000000
      dxy     :     0.000000
  1 C s       :     0.000000  s :     0.000000
      pz      :     0.000000  p :     0.000000
      px      :     0.000000
      py      :     0.000000
      dz2     :     0.000000  d :     0.000000
      dxz     :     0.000000
      dyz     :     0.000000
      dx2y2   :     0.000000
      dxy     :     0.000000
  2 C s       :    -0.000000  s :    -0.000000
      pz      :     0.000000  p :     0.000000
      px      :     0.000000
      py      :     0.000000
      dz2     :     0.000000  d :     0.000000
      dxz     :     0.000000
      dyz     :     0.000000
      dx2y2   :     0.000000
      dxy     :     0.000000
  3 C s       :    -0.000000  s :    -0.000000
      pz      :     0.000000  p :     0.000000
      px      :     0.000000
      py      :     0.000000
      dz2     :     0.000000  d :     0.000000
      dxz     :     0.000000
      dyz     :     0.000000
      dx2y2   :     0.000000
      dxy     :     0.000000
  4 H s       :     0.000000  s :     0.000000
  5 H s       :     0.000000  s :     0.000000
  6 H s       :     0.000000  s :     0.000000
  7 H s       :     0.000000  s :     0.000000
  8 H s       :     0.000000  s :     0.000000
  9 H s       :     0.000000  s :     0.000000
 10 H s       :     0.000000  s :     0.000000
 11 H s       :     0.000000  s :     0.000000
 12 H s       :     0.000000  s :     0.000000


                     *******************************
                     * LOEWDIN POPULATION ANALYSIS *
                     *******************************

-------------------------------------------
LOEWDIN ATOMIC CHARGES AND SPIN POPULATIONS
-------------------------------------------
   0 C :   -0.179237   -0.000023
   1 C :   -0.207645    0.956318
   2 C :   -0.309998    0.033785
   3 C :   -0.303654    0.011801
   4 H :    0.110067    0.016532
   5 H :    0.105662   -0.013543
   6 H :    0.109548   -0.012611
   7 H :    0.111159    0.001201
   8 H :    0.117471    0.000777
   9 H :    0.116283    0.002745
  10 H :    0.112302    0.002705
  11 H :    0.106210    0.000419
  12 H :    0.111830   -0.000105

----------------------------------------------------
LOEWDIN REDUCED ORBITAL CHARGES AND SPIN POPULATIONS
----------------------------------------------------
CHARGE
  0 C s       :     2.870447  s :     2.870447
      pz      :     1.068377  p :     3.194670
      px      :     1.064520
      py      :     1.061773
      dz2     :     0.030039  d :     0.114120
      dxz     :     0.013248
      dyz     :     0.016020
      dx2y2   :     0.029324
      dxy     :     0.025489
  1 C s       :     3.045679  s :     3.045679
      pz      :     1.052230  p :     3.100609
      px      :     1.054947
      py      :     0.993432
      dz2     :     0.009911  d :     0.061357
      dxz     :     0.018062
      dyz     :     0.007003
      dx2y2   :     0.017681
      dxy     :     0.008701
  2 C s       :     2.950162  s :     2.950162
      pz      :     1.104648  p :     3.284714
      px      :     1.095586
      py      :     1.084480
      dz2     :     0.007032  d :     0.075122
      dxz     :     0.023749
      dyz     :     0.015830
      dx2y2   :     0.009921
      dxy     :     0.018589
  3 C s       :     2.959571  s :     2.959571
      pz      :     1.102952  p :     3.268090
      px      :     1.090557
      py      :     1.074581
      dz2     :     0.024231  d :     0.075993
      dxz     :     0.008079
      dyz     :     0.010604
      dx2y2   :     0.018192
      dxy     :     0.014887
  4 H s       :     0.889933  s :     0.889933
  5 H s       :     0.894338  s :     0.894338
  6 H s       :     0.890452  s :     0.890452
  7 H s       :     0.888841  s :     0.888841
  8 H s       :     0.882529  s :     0.882529
  9 H s       :     0.883717  s :     0.883717
 10 H s       :     0.887698  s :     0.887698
 11 H s       :     0.893790  s :     0.893790
 12 H s       :     0.888170  s :     0.888170

SPIN
  0 C s       :    -0.001950  s :    -0.001950
      pz      :    -0.001574  p :    -0.009395
      px      :    -0.007971
      py      :     0.000150
      dz2     :     0.001226  d :     0.011322
      dxz     :     0.002525
      dyz     :     0.000350
      dx2y2   :     0.000671
      dxy     :     0.006551
  1 C s       :     0.099075  s :     0.099075
      pz      :     0.263991  p :     0.861163
      px      :     0.071354
      py      :     0.525818
      dz2     :    -0.000909  d :    -0.003920
      dxz     :    -0.000493
      dyz     :    -0.001148
      dx2y2   :    -0.001519
      dxy     :     0.000149
  2 C s       :     0.012320  s :     0.012320
      pz      :     0.001232  p :     0.021782
      px      :     0.016303
      py      :     0.004247
      dz2     :    -0.000011  d :    -0.000317
      dxz     :    -0.000114
      dyz     :    -0.000108
      dx2y2   :     0.000032
      dxy     :    -0.000116
  3 C s       :     0.001948  s :     0.001948
      pz      :     0.002743  p :     0.009541
      px      :     0.005637
      py      :     0.001161
      dz2     :     0.000262  d :     0.000312
      dxz     :    -0.000059
      dyz     :     0.000020
      dx2y2   :     0.000125
      dxy     :    -0.000035
  4 H s       :     0.016532  s :     0.016532
  5 H s       :    -0.013543  s :    -0.013543
  6 H s       :    -0.012611  s :    -0.012611
  7 H s       :     0.001201  s :     0.001201
  8 H s       :     0.000777  s :     0.000777
  9 H s       :     0.002745  s :     0.002745
 10 H s       :     0.002705  s :     0.002705
 11 H s       :     0.000419  s :     0.000419
 12 H s       :    -0.000105  s :    -0.000105


                      *****************************
                      * MAYER POPULATION ANALYSIS *
                      *****************************

  NA   - Mulliken gross atomic population
  ZA   - Total nuclear charge
  QA   - Mulliken gross atomic charge
  VA   - Mayer's total valence
  BVA  - Mayer's bonded valence
  FA   - Mayer's free valence

  ATOM       NA         ZA         QA         VA         BVA        FA
  0 C      6.1716     6.0000    -0.1716     4.2498     4.2466     0.0032
  1 C      6.1821     6.0000    -0.1821     3.8962     3.0327     0.8636
  2 C      6.2190     6.0000    -0.2190     3.9294     3.9287     0.0007
  3 C      6.2313     6.0000    -0.2313     3.9877     3.9876     0.0001
  4 H      0.9279     1.0000     0.0721     0.9378     0.9375     0.0003
  5 H      0.9147     1.0000     0.0853     0.9617     0.9601     0.0015
  6 H      0.9079     1.0000     0.0921     0.9487     0.9474     0.0013
  7 H      0.9092     1.0000     0.0908     0.9662     0.9662     0.0000
  8 H      0.9105     1.0000     0.0895     0.9564     0.9564     0.0000
  9 H      0.9007     1.0000     0.0993     0.9695     0.9694     0.0001
 10 H      0.9108     1.0000     0.0892     0.9545     0.9545     0.0000
 11 H      0.9132     1.0000     0.0868     0.9592     0.9592     0.0000
 12 H      0.9010     1.0000     0.0990     0.9588     0.9588     0.0000

  Mayer bond orders larger than 0.100000
B(  0-C ,  1-C ) :   1.1035 B(  0-C ,  2-C ) :   1.0692 B(  0-C ,  3-C ) :   1.1258 
B(  0-C ,  4-H ) :   0.9224 B(  1-C ,  5-H ) :   0.9523 B(  1-C ,  6-H ) :   0.9490 
B(  2-C ,  7-H ) :   0.9609 B(  2-C ,  8-H ) :   0.9556 B(  2-C ,  9-H ) :   0.9600 
B(  3-C , 10-H ) :   0.9522 B(  3-C , 11-H ) :   0.9517 B(  3-C , 12-H ) :   0.9529 


-------
TIMINGS
-------

Total SCF time: 0 days 0 hours 7 min 34 sec 

Total time                  ....     454.138 sec
Sum of individual times     ....     373.874 sec  ( 82.3%)

Fock matrix formation       ....     319.852 sec  ( 70.4%)
  XC integration            ....     164.746 sec  ( 51.5% of F)
    Basis function eval.    ....       0.841 sec  (  0.5% of XC)
    Density eval.           ....       0.594 sec  (  0.4% of XC)
    XC-Functional eval.     ....       0.363 sec  (  0.2% of XC)
    XC-Potential eval.      ....       0.903 sec  (  0.5% of XC)
Diagonalization             ....       5.144 sec  (  1.1%)
Density matrix formation    ....      19.593 sec  (  4.3%)
Population analysis         ....      16.600 sec  (  3.7%)
Initial guess               ....       0.274 sec  (  0.1%)
Orbital Transformation      ....       0.000 sec  (  0.0%)
Orbital Orthonormalization  ....       0.000 sec  (  0.0%)
DIIS solution               ....       8.343 sec  (  1.8%)
Grid generation             ....       4.068 sec  (  0.9%)


-------------------------------------------------------------------------------
                          DFT DISPERSION CORRECTION                            
                                                                               
                              DFTD3 V3.1  Rev 1                                
                          USING Becke-Johnson damping                          
-------------------------------------------------------------------------------
The B3LYP functional is recognized
Active option DFTDOPT                   ...         4   

molecular C6(AA) [au] = 1132.183953 


            DFT-D V3
 parameters
 s6 scaling factor         :     1.0000 
 a1 scaling factor         :     0.3981 
 s8 scaling factor         :     1.9889 
 a2 scaling factor         :     4.4211 
 ad hoc parameters k1-k3   :    16.0000     1.3333    -4.0000 

 Edisp/kcal,au: -9.201790013559  -0.014663984230 
 E6   /kcal   :  -4.563640722 
 E8   /kcal   :  -4.638149292 
 % E8         :  50.404859109 

-------------------------   ----------------
Dispersion correction           -0.014663984
-------------------------   ----------------


-------------------------   --------------------
FINAL SINGLE POINT ENERGY      -157.514844506084
-------------------------   --------------------

------------------------------------------------------------------------------
                         ORCA SCF GRADIENT CALCULATION
------------------------------------------------------------------------------

Gradient of the Kohn-Sham DFT energy:
Kohn-Sham wavefunction type      ... UKS
Hartree-Fock exchange scaling    ...    0.200
Number of operators              ...    2
Number of atoms                  ...   13
Basis set dimensions             ...   74
Integral neglect threshold       ... 1.0e-12
Integral primitive cutoff        ... 1.0e-14

Nuclear repulsion gradient       ... done
One Electron Gradient            ... done
Pre-screening matrix             ... done
Starting the two electron gradient:
Two electron gradient done
Exchange-correlation gradient    ... done
Dispersion correction            ... done

------------------
CARTESIAN GRADIENT
------------------

   1   C   :   -0.005184613   -0.008944173   -0.004477426
   2   C   :    0.002177219   -0.038979451   -0.018873278
   3   C   :   -0.000319529    0.026921932    0.001585859
   4   C   :   -0.012341249   -0.006001764   -0.018564905
   5   H   :    0.000744338    0.007946797    0.005417177
   6   H   :   -0.010937360    0.008715388    0.012573443
   7   H   :   -0.006406817    0.014506639    0.003953047
   8   H   :    0.001304272   -0.003341012    0.002087387
   9   H   :    0.000783067    0.013907428    0.002723037
  10   H   :    0.012952100    0.003933555   -0.006859129
  11   H   :    0.003740315   -0.009393571    0.003889624
  12   H   :    0.014272839   -0.002861032    0.010931725
  13   H   :   -0.000784580   -0.006410734    0.005613438

Difference to translation invariance:
           :    0.0000000000    0.0000000000   -0.0000000000

Norm of the cartesian gradient     ...    0.0703734687
RMS gradient                       ...    0.0112687736
MAX gradient                       ...    0.0389794514

-------
TIMINGS
-------

Total SCF gradient time            ...        4.124 sec

One electron gradient       ....       0.027 sec  (  0.6%)
Prescreening matrices       ....       0.025 sec  (  0.6%)
Two electron gradient       ....       1.325 sec  ( 32.1%)
XC gradient                 ....       2.378 sec  ( 57.7%)
------------------------------------------------------------------------------
                         ORCA GEOMETRY RELAXATION STEP
------------------------------------------------------------------------------

Reading the OPT-File                    .... done
Getting information on internals        .... done
Copying old internal coords+grads       .... done
Making the new internal coordinates     .... (new redundants).... done
Validating the new internal coordinates .... (new redundants).... done
Calculating the B-matrix                .... done
Calculating the G,G- and P matrices     .... done
Transforming gradient to internals      .... done
Projecting the internal gradient        .... done
Number of atoms                         ....  13
Number of internal coordinates          ....  57
Current Energy                          ....  -157.514844506 Eh
Current gradient norm                   ....     0.070373469 Eh/bohr
Maximum allowed component of the step   ....  0.300
Current trust radius                    ....  0.300
Evaluating the initial hessian          ....  (Almloef) done
Projecting the Hessian                  .... done
Forming the augmented Hessian           .... done
Diagonalizing the augmented Hessian     .... done
Last element of RFO vector              ....  0.940033353
Lowest eigenvalues of augmented Hessian:
 -0.022910538  0.012078547  0.012309071  0.013594341  0.071878116
Length of the computed step             ....  0.362840886
Warning: the length of the step is outside the trust region - taking restricted step instead
The input lambda is                     ....    -0.022911
   iter:   1  x=   -0.041140  g=    2.284980 f(x)=     0.041654
   iter:   2  x=   -0.048391  g=    1.345528 f(x)=     0.009757
   iter:   3  x=   -0.049111  g=    1.130437 f(x)=     0.000814
   iter:   4  x=   -0.049117  g=    1.111950 f(x)=     0.000007
   iter:   5  x=   -0.049117  g=    1.111798 f(x)=     0.000000
   iter:   6  x=   -0.049117  g=    1.111798 f(x)=     0.000000
The output lambda is                    ....    -0.049117 (6 iterations)
The final length of the internal step   ....  0.300000000
Converting the step to cartesian space:
 Initial RMS(Int)=    0.0397359707
Transforming coordinates:
 Iter   0:  RMS(Cart)=    0.0727579662 RMS(Int)=    0.0402271614
 Iter   1:  RMS(Cart)=    0.0029422347 RMS(Int)=    0.0021853104
 Iter   2:  RMS(Cart)=    0.0001611196 RMS(Int)=    0.0001512526
 Iter   3:  RMS(Cart)=    0.0000214959 RMS(Int)=    0.0000160110
 Iter   4:  RMS(Cart)=    0.0000015318 RMS(Int)=    0.0000014161
 Iter   5:  RMS(Cart)=    0.0000001758 RMS(Int)=    0.0000001245
 Iter   6:  RMS(Cart)=    0.0000000156 RMS(Int)=    0.0000000144
done
Storing new coordinates                 .... done

                                .--------------------.
          ----------------------|Geometry convergence|-------------------------
          Item                value                   Tolerance       Converged
          ---------------------------------------------------------------------
          RMS gradient        0.0103404482            0.0001000000      NO
          MAX gradient        0.0402050341            0.0003000000      NO
          RMS step            0.0397359707            0.0020000000      NO
          MAX step            0.1097847729            0.0040000000      NO
          ........................................................
          Max(Bonds)      0.0459      Max(Angles)    5.34
          Max(Dihed)        6.29      Max(Improp)    0.00
          ---------------------------------------------------------------------

The optimization has not yet converged - more geometry cycles are needed


    ---------------------------------------------------------------------------
                         Redundant Internal Coordinates
                            (Angstroem and degrees)

        Definition                    Value    dE/dq     Step     New-Value
    ----------------------------------------------------------------------------
     1. B(C   1,C   0)                1.5063 -0.014688  0.0170    1.5233   
     2. B(C   2,C   0)                1.5018 -0.040205  0.0459    1.5477   
     3. B(C   3,C   0)                1.5197 -0.022699  0.0275    1.5472   
     4. B(H   4,C   0)                1.1180  0.005940 -0.0084    1.1096   
     5. B(H   5,C   1)                1.1034 -0.001859  0.0025    1.1060   
     6. B(H   6,C   1)                1.1028 -0.000221  0.0003    1.1031   
     7. B(H   7,C   2)                1.1004 -0.002965  0.0040    1.1044   
     8. B(H   8,C   2)                1.0978 -0.004632  0.0061    1.1039   
     9. B(H   9,C   2)                1.1197  0.009857 -0.0140    1.1057   
    10. B(H  10,C   3)                1.1012 -0.002091  0.0028    1.1040   
    11. B(H  11,C   3)                1.1201  0.009041 -0.0129    1.1072   
    12. B(H  12,C   3)                1.0957 -0.005217  0.0069    1.1026   
    13. A(C   1,C   0,H   4)          106.66 -0.002325    0.03    106.69   
    14. A(C   2,C   0,H   4)          112.26  0.007702   -2.06    110.20   
    15. A(C   1,C   0,C   2)          111.69 -0.001431    0.43    112.13   
    16. A(C   1,C   0,C   3)          112.33  0.006648   -0.72    111.61   
    17. A(C   2,C   0,C   3)          108.80 -0.008700    1.82    110.61   
    18. A(C   3,C   0,H   4)          104.94 -0.001357    0.37    105.31   
    19. A(H   5,C   1,H   6)          107.52  0.004029    2.67    110.18   
    20. A(C   0,C   1,H   6)          113.44 -0.013408    3.58    117.02   
    21. A(C   0,C   1,H   5)          109.07 -0.024184    5.34    114.42   
    22. A(H   7,C   2,H   9)          106.99  0.002284   -0.33    106.67   
    23. A(C   0,C   2,H   9)          108.19 -0.012199    1.87    110.06   
    24. A(H   7,C   2,H   8)          107.00  0.003351   -0.35    106.65   
    25. A(C   0,C   2,H   8)          107.36 -0.015727    2.45    109.81   
    26. A(H   8,C   2,H   9)          113.35  0.014815   -2.63    110.72   
    27. A(C   0,C   2,H   7)          114.09  0.008702   -1.20    112.89   
    28. A(H  11,C   3,H  12)          113.54  0.012809   -2.20    111.35   
    29. A(H  10,C   3,H  12)          110.44  0.007519   -1.18    109.25   
    30. A(C   0,C   3,H  12)          110.10 -0.002484    0.42    110.51   
    31. A(H  10,C   3,H  11)          112.05  0.013134   -2.01    110.04   
    32. A(C   0,C   3,H  11)          104.70 -0.021706    3.46    108.15   
    33. A(C   0,C   3,H  10)          105.55 -0.013161    2.15    107.70   
    34. D(H   6,C   1,C   0,C   3)    120.98 -0.007669    4.12    125.10   
    35. D(H   6,C   1,C   0,H   4)      6.53 -0.008104    4.03     10.56   
    36. D(H   6,C   1,C   0,C   2)   -116.46 -0.015218    6.29   -110.17   
    37. D(H   5,C   1,C   0,H   4)   -113.28  0.012337   -5.39   -118.67   
    38. D(H   5,C   1,C   0,C   2)    123.73  0.005224   -3.13    120.60   
    39. D(H   5,C   1,C   0,C   3)      1.17  0.012773   -5.30     -4.13   
    40. D(H   7,C   2,C   0,C   1)   -119.37 -0.000455   -0.36   -119.73   
    41. D(H   9,C   2,C   0,C   1)     -0.42 -0.000608   -0.23     -0.66   
    42. D(H   8,C   2,C   0,H   4)      2.51 -0.000528    0.21      2.72   
    43. D(H   8,C   2,C   0,C   1)    122.25  0.000819   -0.87    121.38   
    44. D(H   7,C   2,C   0,H   4)    120.89 -0.001803    0.71    121.60   
    45. D(H   7,C   2,C   0,C   3)      5.19  0.000808    0.32      5.51   
    46. D(H   9,C   2,C   0,C   3)    124.13  0.000656    0.45    124.59   
    47. D(H   9,C   2,C   0,H   4)   -120.17 -0.001955    0.85   -119.32   
    48. D(H   8,C   2,C   0,C   3)   -113.19  0.002083   -0.18   -113.37   
    49. D(H  12,C   3,C   0,H   4)   -173.86 -0.000374   -0.40   -174.26   
    50. D(H  12,C   3,C   0,C   1)     70.65 -0.000090   -0.30     70.35   
    51. D(H  11,C   3,C   0,H   4)     63.75 -0.001318   -0.07     63.68   
    52. D(H  11,C   3,C   0,C   2)   -175.93  0.002542   -1.35   -177.28   
    53. D(H  11,C   3,C   0,C   1)    -51.74 -0.001034    0.03    -51.72   
    54. D(H  10,C   3,C   0,H   4)    -54.67 -0.000315   -0.35    -55.02   
    55. D(H  12,C   3,C   0,C   2)    -53.54  0.003485   -1.68    -55.22   
    56. D(H  10,C   3,C   0,C   2)     65.66  0.003544   -1.63     64.02   
    57. D(H  10,C   3,C   0,C   1)   -170.16 -0.000032   -0.25   -170.41   
    ----------------------------------------------------------------------------

Time needed for optimization step       :     4.13 sec

         *************************************************************
         *                GEOMETRY OPTIMIZATION CYCLE   2            *
         *************************************************************
---------------------------------
CARTESIAN COORDINATES (ANGSTROEM)
---------------------------------
  C     -0.063781    0.021742    0.392336
  C      1.446830    0.050123    0.197906
  C     -0.699458   -1.272746   -0.169480
  C     -0.740212    1.271186   -0.220244
  H     -0.245945    0.095233    1.484438
  H      1.808506    0.903999   -0.404778
  H      2.065712   -0.050754    1.105396
  H     -1.440143   -1.077570   -0.965074
  H     -1.233243   -1.807097    0.635654
  H      0.081751   -1.916521   -0.614221
  H     -1.795509    1.273626    0.104198
  H     -0.222802    2.168818    0.170279
  H     -0.698754    1.231831   -1.321327

----------------------------
CARTESIAN COORDINATES (A.U.)
----------------------------
  NO LB      ZA    FRAG     MASS         X           Y           Z
   0 C     6.0000    0    12.011   -0.120528    0.041086    0.741408
   1 C     6.0000    0    12.011    2.734112    0.094718    0.373989
   2 C     6.0000    0    12.011   -1.321785   -2.405141   -0.320270
   3 C     6.0000    0    12.011   -1.398797    2.402193   -0.416202
   4 H     1.0000    0     1.008   -0.464768    0.179964    2.805181
   5 H     1.0000    0     1.008    3.417581    1.708311   -0.764920
   6 H     1.0000    0     1.008    3.903630   -0.095911    2.088895
   7 H     1.0000    0     1.008   -2.721475   -2.036311   -1.823725
   8 H     1.0000    0     1.008   -2.330491   -3.414919    1.201212
   9 H     1.0000    0     1.008    0.154486   -3.621700   -1.160710
  10 H     1.0000    0     1.008   -3.393021    2.406804    0.196906
  11 H     1.0000    0     1.008   -0.421035    4.098473    0.321781
  12 H     1.0000    0     1.008   -1.320454    2.327823   -2.496947

--------------------------------
INTERNAL COORDINATES (ANGSTROEM)
--------------------------------
 C      0   0   0     0.000000000000     0.00000000     0.00000000
 C      1   0   0     1.523335934534     0.00000000     0.00000000
 C      1   2   0     1.547714937882   112.11955714     0.00000000
 C      1   2   3     1.547230859424   111.58973108   235.27558838
 H      1   2   3     1.109626123418   106.68921058   120.72424742
 H      2   1   3     1.105958099362   114.09375581   120.44615596
 H      2   1   3     1.103053950766   116.72226576   249.98041025
 H      3   1   2     1.104389708682   112.90142318   240.26224394
 H      3   1   2     1.103946796915   109.79726092   121.39393143
 H      3   1   2     1.105680333923   110.04752942   359.32702527
 H      4   1   2     1.104048291482   107.65714829   189.56581945
 H      4   1   2     1.107233305703   108.10311361   308.30397853
 H      4   1   2     1.102565606592   110.49500657    70.34815869

---------------------------
INTERNAL COORDINATES (A.U.)
---------------------------
 C      0   0   0     0.000000000000     0.00000000     0.00000000
 C      1   0   0     2.878687726231     0.00000000     0.00000000
 C      1   2   0     2.924757365976   112.11955714     0.00000000
 C      1   2   3     2.923842590263   111.58973108   235.27558838
 H      1   2   3     2.096889484305   106.68921058   120.72424742
 H      2   1   3     2.089957923387   114.09375581   120.44615596
 H      2   1   3     2.084469877887   116.72226576   249.98041025
 H      3   1   2     2.086994094531   112.90142318   240.26224394
 H      3   1   2     2.086157112589   109.79726092   121.39393143
 H      3   1   2     2.089433022776   110.04752942   359.32702527
 H      4   1   2     2.086348909525   107.65714829   189.56581945
 H      4   1   2     2.092367714135   108.10311361   308.30397853
 H      4   1   2     2.083547041140   110.49500657    70.34815869


Diagonalization of the overlap matrix:
Smallest eigenvalue                        ... 2.090e-03
Time for diagonalization                   ...    0.001 sec
Threshold for overlap eigenvalues          ... 1.000e-08
Number of eigenvalues below threshold      ... 0
Time for construction of square roots      ...    3.200 sec
Total time needed                          ...    3.201 sec

-------------------
DFT GRID GENERATION
-------------------

General Integration Accuracy     IntAcc      ...  4.340
Radial Grid Type                 RadialGrid  ... Gauss-Chebyshev
Angular Grid (max. acc.)         AngularGrid ... Lebedev-110
Angular grid pruning method      GridPruning ... 3 (G Style)
Weight generation scheme         WeightScheme... Becke
Basis function cutoff            BFCut       ...    1.0000e-12
Integration weight cutoff        WCut        ...    1.0000e-14
Grids for H and He will be reduced by one unit

# of grid points (after initial pruning)     ...  13770 (   0.0 sec)
# of grid points (after weights+screening)   ...  12906 (   0.0 sec)
nearest neighbour list constructed           ...    0.0 sec
Grid point re-assignment to atoms done       ...    0.0 sec
Grid point division into batches done        ...    0.0 sec
Reduced shell lists constructed in    0.1 sec

Total number of grid points                  ...    12906
Total number of batches                      ...      208
Average number of points per batch           ...       62
Average number of grid points per atom       ...      993
Average number of shells per batch           ...    37.28 (88.76%)
Average number of basis functions per batch  ...    66.56 (89.95%)
Average number of large shells per batch     ...    32.38 (86.87%)
Average number of large basis fcns per batch ...    57.21 (85.95%)
Maximum spatial batch extension              ...  20.53, 20.38, 20.55 au
Average spatial batch extension              ...   4.17,  4.02,  3.98 au

Time for grid setup =    3.556 sec

--------------
SCF ITERATIONS
--------------
ITER       Energy         Delta-E        Max-DP      RMS-DP      [F,P]     Damp
               ***  Starting incremental Fock matrix formation  ***
  0   -157.5123104430   0.000000000000 0.00309703  0.00018120  0.0135748 0.7000
  1   -157.5129496633  -0.000639220265 0.00292949  0.00016321  0.0106024 0.7000
                               ***Turning on DIIS***
  2   -157.5134437359  -0.000494072572 0.00773369  0.00042591  0.0079380 0.0000
  3   -157.5146939793  -0.001250243430 0.00303903  0.00008971  0.0014870 0.0000
  4   -157.5147244589  -0.000030479593 0.00260789  0.00007740  0.0008645 0.0000
  5   -157.5147335508  -0.000009091960 0.00041591  0.00001681  0.0003923 0.0000
  6   -157.5147344988  -0.000000947980 0.00029631  0.00000917  0.0002054 0.0000
  7   -157.5147347335  -0.000000234682 0.00002609  0.00000127  0.0000200 0.0000
  8   -157.5147347400  -0.000000006500 0.00001046  0.00000045  0.0000105 0.0000
  9   -157.5147347410  -0.000000001001 0.00000392  0.00000016  0.0000040 0.0000
 10   -157.5147347412  -0.000000000151 0.00000138  0.00000007  0.0000008 0.0000
 11   -157.5147347412  -0.000000000035 0.00000053  0.00000003  0.0000002 0.0000
 12   -157.5147347412  -0.000000000006 0.00000027  0.00000001  0.0000002 0.0000
 13   -157.5147347412  -0.000000000008 0.00000013  0.00000000  0.0000001 0.0000
                 **** Energy Check signals convergence ****

 Fermi smearing  (ALPHA): E(HOMO(Eh)) = -0.316143 MUE = -0.082729 gap=   7.559 eV
 Fermi smearing   (BETA): E(HOMO(Eh)) = -0.313659 MUE = -0.185457 gap=   6.954 eV

N_FOD(alpha) =  0.000000
 N_FOD(beta) =  0.000000
       N_FOD =  0.000000

               *****************************************************
               *                     SUCCESS                       *
               *           SCF CONVERGED AFTER  14 CYCLES          *
               *****************************************************

Setting up the final grid:

General Integration Accuracy     IntAcc      ...  4.670
Radial Grid Type                 RadialGrid  ... Gauss-Chebyshev
Angular Grid (max. acc.)         AngularGrid ... Lebedev-302
Angular grid pruning method      GridPruning ... 3 (G Style)
Weight generation scheme         WeightScheme... Becke
Basis function cutoff            BFCut       ...    1.0000e-12
Integration weight cutoff        WCut        ...    1.0000e-14
Grids for H and He will be reduced by one unit

# of grid points (after initial pruning)     ...  55394 (   0.0 sec)
# of grid points (after weights+screening)   ...  51275 (   0.1 sec)
nearest neighbour list constructed           ...    0.0 sec
Grid point re-assignment to atoms done       ...    0.0 sec
Grid point division into batches done        ...    0.1 sec
Reduced shell lists constructed in    0.3 sec

Total number of grid points                  ...    51275
Total number of batches                      ...      808
Average number of points per batch           ...       63
Average number of grid points per atom       ...     3944
Average number of shells per batch           ...    34.95 (83.21%)
Average number of basis functions per batch  ...    62.05 (83.86%)
Average number of large shells per batch     ...    29.76 (85.17%)
Average number of large basis fcns per batch ...    52.29 (84.27%)
Maximum spatial batch extension              ...  16.72, 19.47, 19.23 au
Average spatial batch extension              ...   2.62,  2.70,  2.60 au

Final grid set up in    2.1 sec
Final integration                            ... done (   8.9 sec)
Change in XC energy                          ...     0.000389937
Integrated number of electrons               ...    32.999959974
Previous integrated no of electrons          ...    33.005135925
Total Energy       :         -157.51434480 Eh           -4286.18323 eV
  Last Energy change         ...    1.7906e-11  Tolerance :   1.0000e-09
  Last MAX-Density change    ...    5.6038e-08  Tolerance :   1.0000e-08
             **** THE GBW FILE WAS UPDATED (orca1.gbw) ****
             **** DENSITY FILE WAS UPDATED (orca1.scfp) ****
             **** ENERGY FILE WAS UPDATED (orca1.en.tmp) ****
             **** THE GBW FILE WAS UPDATED (orca1.gbw) ****
             **** DENSITY FILE WAS UPDATED (orca1.scfp) ****
Total SCF time: 0 days 0 hours 10 min 27 sec 


-------------------------------------------------------------------------------
                          DFT DISPERSION CORRECTION                            
                                                                               
                              DFTD3 V3.1  Rev 1                                
                          USING Becke-Johnson damping                          
-------------------------------------------------------------------------------
-------------------------   ----------------
Dispersion correction           -0.014327205
-------------------------   ----------------


-------------------------   --------------------
FINAL SINGLE POINT ENERGY      -157.528672009140
-------------------------   --------------------

------------------------------------------------------------------------------
                         ORCA SCF GRADIENT CALCULATION
------------------------------------------------------------------------------

Gradient of the Kohn-Sham DFT energy:
Kohn-Sham wavefunction type      ... UKS
Hartree-Fock exchange scaling    ...    0.200
Number of operators              ...    2
Number of atoms                  ...   13
Basis set dimensions             ...   74
Integral neglect threshold       ... 1.0e-12
Integral primitive cutoff        ... 1.0e-14

Nuclear repulsion gradient       ... done
One Electron Gradient            ... done
Pre-screening matrix             ... done
Starting the two electron gradient:
Two electron gradient done
Exchange-correlation gradient    ... done
Dispersion correction            ... done

------------------
CARTESIAN GRADIENT
------------------

   1   C   :   -0.005063559   -0.004853217    0.005822840
   2   C   :    0.006464693   -0.026946170   -0.012374863
   3   C   :    0.000882198    0.003899837   -0.003332023
   4   C   :   -0.006479881    0.008843677   -0.010234899
   5   H   :    0.000558442    0.005443722    0.001460176
   6   H   :   -0.002727034    0.008264745    0.007345415
   7   H   :   -0.000877357    0.010666511    0.003187407
   8   H   :   -0.000137781   -0.003124767    0.000444993
   9   H   :   -0.001565676    0.005276078    0.002044913
  10   H   :    0.003231652    0.003334000   -0.003209993
  11   H   :    0.001418547   -0.004593602    0.002669108
  12   H   :    0.005138471   -0.002630547    0.004657422
  13   H   :   -0.000842714   -0.003580266    0.001519505

Difference to translation invariance:
           :   -0.0000000000   -0.0000000000    0.0000000000

Norm of the cartesian gradient     ...    0.0414734934
RMS gradient                       ...    0.0066410739
MAX gradient                       ...    0.0269461701

-------
TIMINGS
-------

Total SCF gradient time            ...        3.925 sec

One electron gradient       ....       0.027 sec  (  0.7%)
Prescreening matrices       ....       0.024 sec  (  0.6%)
Two electron gradient       ....       1.293 sec  ( 33.0%)
XC gradient                 ....       2.340 sec  ( 59.6%)
------------------------------------------------------------------------------
                         ORCA GEOMETRY RELAXATION STEP
------------------------------------------------------------------------------

Reading the OPT-File                    .... done
Getting information on internals        .... done
Copying old internal coords+grads       .... done
Making the new internal coordinates     .... (new redundants).... done
Validating the new internal coordinates .... (new redundants).... done
Calculating the B-matrix                .... done
Calculating the G,G- and P matrices     .... done
Transforming gradient to internals      .... done
Projecting the internal gradient        .... done
Number of atoms                         ....  13
Number of internal coordinates          ....  57
Current Energy                          ....  -157.528672009 Eh
Current gradient norm                   ....     0.041473493 Eh/bohr
Maximum allowed component of the step   ....  0.300
Current trust radius                    ....  0.300
Updating the Hessian (BFGS)             .... done
Forming the augmented Hessian           .... done
Diagonalizing the augmented Hessian     .... done
Last element of RFO vector              ....  0.953738249
Lowest eigenvalues of augmented Hessian:
 -0.007887408  0.012068191  0.012311182  0.013601233  0.066782279
Length of the computed step             ....  0.315220912
Warning: the length of the step is outside the trust region - taking restricted step instead
The input lambda is                     ....    -0.007887
   iter:   1  x=   -0.010895  g=    3.113475 f(x)=     0.009364
   iter:   2  x=   -0.011191  g=    2.623119 f(x)=     0.000777
   iter:   3  x=   -0.011193  g=    2.582464 f(x)=     0.000006
   iter:   4  x=   -0.011193  g=    2.582147 f(x)=     0.000000
   iter:   5  x=   -0.011193  g=    2.582147 f(x)=    -0.000000
The output lambda is                    ....    -0.011193 (5 iterations)
The final length of the internal step   ....  0.300000000
Converting the step to cartesian space:
 Initial RMS(Int)=    0.0397359707
Transforming coordinates:
 Iter   0:  RMS(Cart)=    0.0493129622 RMS(Int)=    0.0400958340
 Iter   1:  RMS(Cart)=    0.0029771560 RMS(Int)=    0.0022774365
 Iter   2:  RMS(Cart)=    0.0001620712 RMS(Int)=    0.0001659934
 Iter   3:  RMS(Cart)=    0.0000181436 RMS(Int)=    0.0000135354
 Iter   4:  RMS(Cart)=    0.0000014700 RMS(Int)=    0.0000014346
 Iter   5:  RMS(Cart)=    0.0000001552 RMS(Int)=    0.0000001124
 Iter   6:  RMS(Cart)=    0.0000000163 RMS(Int)=    0.0000000153
done
Storing new coordinates                 .... done

                                .--------------------.
          ----------------------|Geometry convergence|-------------------------
          Item                value                   Tolerance       Converged
          ---------------------------------------------------------------------
          Energy change      -0.0138275031            0.0000050000      NO
          RMS gradient        0.0039139678            0.0001000000      NO
          MAX gradient        0.0093889741            0.0003000000      NO
          RMS step            0.0397359707            0.0020000000      NO
          MAX step            0.1173551076            0.0040000000      NO
          ........................................................
          Max(Bonds)      0.0158      Max(Angles)    4.52
          Max(Dihed)        6.72      Max(Improp)    0.00
          ---------------------------------------------------------------------

The optimization has not yet converged - more geometry cycles are needed


    ---------------------------------------------------------------------------
                         Redundant Internal Coordinates
                            (Angstroem and degrees)

        Definition                    Value    dE/dq     Step     New-Value
    ----------------------------------------------------------------------------
     1. B(C   1,C   0)                1.5233  0.002924 -0.0053    1.5180   
     2. B(C   2,C   0)                1.5477 -0.007364  0.0158    1.5635   
     3. B(C   3,C   0)                1.5472 -0.000703  0.0022    1.5494   
     4. B(H   4,C   0)                1.1096  0.001706 -0.0043    1.1053   
     5. B(H   5,C   1)                1.1060  0.001483 -0.0035    1.1025   
     6. B(H   6,C   1)                1.1031  0.001155 -0.0027    1.1003   
     7. B(H   7,C   2)                1.1044 -0.000774  0.0019    1.1063   
     8. B(H   8,C   2)                1.1039 -0.000308  0.0008    1.1048   
     9. B(H   9,C   2)                1.1057  0.001631 -0.0042    1.1014   
    10. B(H  10,C   3)                1.1040 -0.000583  0.0014    1.1055   
    11. B(H  11,C   3)                1.1072  0.001916 -0.0049    1.1023   
    12. B(H  12,C   3)                1.1026 -0.001426  0.0034    1.1060   
    13. A(C   1,C   0,H   4)          106.69 -0.001180    0.50    107.19   
    14. A(C   2,C   0,H   4)          110.20  0.003995   -1.97    108.23   
    15. A(C   1,C   0,C   2)          112.12 -0.000976    0.12    112.24   
    16. A(C   1,C   0,C   3)          111.59  0.002591   -0.52    111.07   
    17. A(C   2,C   0,C   3)          110.62 -0.002299    0.68    111.30   
    18. A(C   3,C   0,H   4)          105.33 -0.002039    1.18    106.51   
    19. A(H   5,C   1,H   6)          109.60 -0.000032    4.06    113.66   
    20. A(C   0,C   1,H   6)          116.72 -0.003749    2.85    119.57   
    21. A(C   0,C   1,H   5)          114.09 -0.009389    4.52    118.61   
    22. A(H   7,C   2,H   9)          106.68 -0.000724    0.32    107.00   
    23. A(C   0,C   2,H   9)          110.05 -0.004705    1.24    111.28   
    24. A(H   7,C   2,H   8)          106.66 -0.000184    0.26    106.92   
    25. A(C   0,C   2,H   8)          109.80 -0.006364    1.72    111.52   
    26. A(H   8,C   2,H   9)          110.68  0.006663   -2.27    108.41   
    27. A(C   0,C   2,H   7)          112.90  0.005892   -1.46    111.44   
    28. A(H  11,C   3,H  12)          111.32  0.006141   -2.04    109.28   
    29. A(H  10,C   3,H  12)          109.24  0.003692   -0.93    108.31   
    30. A(C   0,C   3,H  12)          110.50 -0.001004    0.28    110.78   
    31. A(H  10,C   3,H  11)          109.95  0.006270   -1.51    108.44   
    32. A(C   0,C   3,H  11)          108.10 -0.008919    2.53    110.64   
    33. A(C   0,C   3,H  10)          107.66 -0.006659    2.04    109.70   
    34. D(H   6,C   1,C   0,C   3)    125.26 -0.006787    6.13    131.38   
    35. D(H   6,C   1,C   0,H   4)     10.70 -0.005007    4.69     15.40   
    36. D(H   6,C   1,C   0,C   2)   -110.02 -0.008578    6.72   -103.30   
    37. D(H   5,C   1,C   0,H   4)   -118.83  0.008367   -6.44   -125.27   
    38. D(H   5,C   1,C   0,C   2)    120.45  0.004795   -4.41    116.04   
    39. D(H   5,C   1,C   0,C   3)     -4.28  0.006587   -5.00     -9.28   
    40. D(H   7,C   2,C   0,C   1)   -119.74 -0.000412    0.27   -119.46   
    41. D(H   9,C   2,C   0,C   1)     -0.67 -0.000713    0.61     -0.07   
    42. D(H   8,C   2,C   0,H   4)      2.72 -0.000188    0.30      3.02   
    43. D(H   8,C   2,C   0,C   1)    121.39  0.000359   -0.32    121.07   
    44. D(H   7,C   2,C   0,H   4)    121.59 -0.000959    0.90    122.49   
    45. D(H   7,C   2,C   0,C   3)      5.52  0.000506    0.20      5.73   
    46. D(H   9,C   2,C   0,C   3)    124.59  0.000204    0.54    125.12   
[...]

             **** THE GBW FILE WAS UPDATED (orca1.gbw) ****
             **** DENSITY FILE WAS UPDATED (orca1.scfp) ****
             **** ENERGY FILE WAS UPDATED (orca1.en.tmp) ****
             **** THE GBW FILE WAS UPDATED (orca1.gbw) ****
             **** DENSITY FILE WAS UPDATED (orca1.scfp) ****
----------------
ORBITAL ENERGIES
----------------
                 SPIN UP ORBITALS
  NO   OCC          E(Eh)            E(eV) 
   0   1.0000     -10.187798      -277.2241 
   1   1.0000     -10.180268      -277.0192 
   2   1.0000     -10.170467      -276.7525 
   3   1.0000     -10.167779      -276.6793 
   4   1.0000      -0.793237       -21.5851 
   5   1.0000      -0.671162       -18.2632 
   6   1.0000      -0.661335       -17.9958 
   7   1.0000      -0.549912       -14.9639 
   8   1.0000      -0.461978       -12.5711 
   9   1.0000      -0.432301       -11.7635 
  10   1.0000      -0.421309       -11.4644 
  11   1.0000      -0.387039       -10.5319 
  12   1.0000      -0.377678       -10.2772 
  13   1.0000      -0.344735        -9.3807 
  14   1.0000      -0.339328        -9.2336 
  15   1.0000      -0.327848        -8.9212 
  16   1.0000      -0.202147        -5.5007 
  17   0.0000       0.058685         1.5969 
  18   0.0000       0.097949         2.6653 
  19   0.0000       0.105703         2.8763 
  20   0.0000       0.113414         3.0862 
  21   0.0000       0.122201         3.3253 
  22   0.0000       0.140955         3.8356 
  23   0.0000       0.145806         3.9676 
  24   0.0000       0.164997         4.4898 
  25   0.0000       0.174913         4.7596 
  26   0.0000       0.207872         5.6565 
  27   0.0000       0.244021         6.6401 
  28   0.0000       0.258941         7.0461 
  29   0.0000       0.395881        10.7725 
  30   0.0000       0.418773        11.3954 
  31   0.0000       0.426332        11.6011 
  32   0.0000       0.447617        12.1803 
  33   0.0000       0.472988        12.8707 
  34   0.0000       0.499123        13.5818 
  35   0.0000       0.575573        15.6621 
  36   0.0000       0.603291        16.4164 
  37   0.0000       0.639440        17.4000 
  38   0.0000       0.660411        17.9707 
  39   0.0000       0.663479        18.0542 
  40   0.0000       0.664329        18.0773 
  41   0.0000       0.694555        18.8998 
  42   0.0000       0.701443        19.0872 
  43   0.0000       0.705090        19.1865 
  44   0.0000       0.709462        19.3054 
  45   0.0000       0.721109        19.6224 
  46   0.0000       0.724516        19.7151 
  47   0.0000       0.737589        20.0708 
  48   0.0000       0.750722        20.4282 
  49   0.0000       0.755259        20.5516 
  50   0.0000       0.852626        23.2011 
  51   0.0000       0.935013        25.4430 
  52   0.0000       1.039613        28.2893 
  53   0.0000       1.088140        29.6098 
  54   0.0000       1.398632        38.0587 
  55   0.0000       1.521373        41.3987 
  56   0.0000       1.672735        45.5174 
  57   0.0000       1.742013        47.4026 
  58   0.0000       1.752418        47.6857 
  59   0.0000       1.818692        49.4891 
  60   0.0000       1.907520        51.9062 
  61   0.0000       1.934458        52.6393 
  62   0.0000       1.979375        53.8615 
  63   0.0000       2.014604        54.8202 
  64   0.0000       2.046957        55.7005 
  65   0.0000       2.076430        56.5025 
  66   0.0000       2.138491        58.1913 
  67   0.0000       2.146294        58.4036 
  68   0.0000       2.175503        59.1984 
  69   0.0000       2.422630        65.9231 
  70   0.0000       2.431696        66.1698 
  71   0.0000       2.498607        67.9906 
  72   0.0000       2.670087        72.6568 
  73   0.0000       2.679493        72.9127 

                 SPIN DOWN ORBITALS
  NO   OCC          E(Eh)            E(eV) 
   0   1.0000     -10.188709      -277.2489 
   1   1.0000     -10.168975      -276.7119 
   2   1.0000     -10.167570      -276.6737 
   3   1.0000     -10.165652      -276.6214 
   4   1.0000      -0.785841       -21.3838 
   5   1.0000      -0.669380       -18.2148 
   6   1.0000      -0.637529       -17.3480 
   7   1.0000      -0.541241       -14.7279 
   8   1.0000      -0.457397       -12.4464 
   9   1.0000      -0.429546       -11.6885 
  10   1.0000      -0.414448       -11.2777 
  11   1.0000      -0.384103       -10.4520 
  12   1.0000      -0.374289       -10.1849 
  13   1.0000      -0.337865        -9.1938 
  14   1.0000      -0.334824        -9.1110 
  15   1.0000      -0.325580        -8.8595 
  16   0.0000      -0.045312        -1.2330 
  17   0.0000       0.060239         1.6392 
  18   0.0000       0.099397         2.7047 
  19   0.0000       0.111409         3.0316 
  20   0.0000       0.117238         3.1902 
  21   0.0000       0.124764         3.3950 
  22   0.0000       0.142199         3.8694 
  23   0.0000       0.147961         4.0262 
  24   0.0000       0.166247         4.5238 
  25   0.0000       0.176732         4.8091 
  26   0.0000       0.211356         5.7513 
  27   0.0000       0.245731         6.6867 
  28   0.0000       0.267297         7.2735 
  29   0.0000       0.398810        10.8522 
  30   0.0000       0.423104        11.5132 
  31   0.0000       0.432669        11.7735 
  32   0.0000       0.451849        12.2954 
  33   0.0000       0.480866        13.0850 
  34   0.0000       0.546349        14.8669 
  35   0.0000       0.594381        16.1739 
  36   0.0000       0.612965        16.6796 
  37   0.0000       0.644738        17.5442 
  38   0.0000       0.664601        18.0847 
  39   0.0000       0.665046        18.0968 
  40   0.0000       0.672926        18.3112 
  41   0.0000       0.697222        18.9724 
  42   0.0000       0.703095        19.1322 
  43   0.0000       0.709198        19.2983 
  44   0.0000       0.713816        19.4239 
  45   0.0000       0.723072        19.6758 
  46   0.0000       0.729117        19.8403 
  47   0.0000       0.743747        20.2384 
  48   0.0000       0.753257        20.4972 
  49   0.0000       0.762568        20.7505 
  50   0.0000       0.858488        23.3607 
  51   0.0000       0.941295        25.6139 
  52   0.0000       1.041360        28.3368 
  53   0.0000       1.091738        29.7077 
  54   0.0000       1.409318        38.3495 
  55   0.0000       1.527023        41.5524 
  56   0.0000       1.722110        46.8610 
  57   0.0000       1.745798        47.5056 
  58   0.0000       1.776080        48.3296 
  59   0.0000       1.834804        49.9276 
  60   0.0000       1.921450        52.2853 
  61   0.0000       1.938704        52.7548 
  62   0.0000       1.987908        54.0937 
  63   0.0000       2.046034        55.6754 
  64   0.0000       2.076838        56.5136 
  65   0.0000       2.089716        56.8641 
  66   0.0000       2.141930        58.2849 
  67   0.0000       2.147622        58.4398 
  68   0.0000       2.182456        59.3877 
  69   0.0000       2.426621        66.0317 
  70   0.0000       2.443608        66.4939 
  71   0.0000       2.503325        68.1189 
  72   0.0000       2.677470        72.8577 
  73   0.0000       2.683815        73.0303 

                    ********************************
                    * MULLIKEN POPULATION ANALYSIS *
                    ********************************

------------------------------------------
FOD BASED MULLIKEN REDUCED ORBITAL CHARGES
------------------------------------------
  0 C s       :    -0.000000  s :    -0.000000
      pz      :     0.000000  p :     0.000000
      px      :     0.000000
      py      :     0.000000
      dz2     :     0.000000  d :     0.000000
      dxz     :     0.000000
      dyz     :     0.000000
      dx2y2   :     0.000000
      dxy     :     0.000000
  1 C s       :    -0.000000  s :    -0.000000
      pz      :     0.000000  p :     0.000000
      px      :     0.000000
      py      :     0.000000
      dz2     :     0.000000  d :     0.000000
      dxz     :     0.000000
      dyz     :     0.000000
      dx2y2   :     0.000000
      dxy     :     0.000000
  2 C s       :    -0.000000  s :    -0.000000
      pz      :     0.000000  p :     0.000000
      px      :     0.000000
      py      :     0.000000
      dz2     :     0.000000  d :     0.000000
      dxz     :     0.000000
      dyz     :     0.000000
      dx2y2   :     0.000000
      dxy     :     0.000000
  3 C s       :    -0.000000  s :    -0.000000
      pz      :     0.000000  p :     0.000000
      px      :     0.000000
      py      :     0.000000
      dz2     :     0.000000  d :     0.000000
      dxz     :     0.000000
      dyz     :     0.000000
      dx2y2   :     0.000000
      dxy     :     0.000000
  4 H s       :     0.000000  s :     0.000000
  5 H s       :     0.000000  s :     0.000000
  6 H s       :     0.000000  s :     0.000000
  7 H s       :     0.000000  s :     0.000000
  8 H s       :     0.000000  s :     0.000000
  9 H s       :     0.000000  s :     0.000000
 10 H s       :     0.000000  s :     0.000000
 11 H s       :     0.000000  s :     0.000000
 12 H s       :     0.000000  s :     0.000000


                     *******************************
                     * LOEWDIN POPULATION ANALYSIS *
                     *******************************

-------------------------------------------
LOEWDIN ATOMIC CHARGES AND SPIN POPULATIONS
-------------------------------------------
   0 C :   -0.160825   -0.012760
   1 C :   -0.220982    0.977608
   2 C :   -0.307824    0.050171
   3 C :   -0.308810    0.008041
   4 H :    0.114178    0.019286
   5 H :    0.113007   -0.025914
   6 H :    0.111652   -0.025618
   7 H :    0.109720    0.000150
   8 H :    0.109035    0.008536
   9 H :    0.109906    0.000074
  10 H :    0.109812    0.000061
  11 H :    0.111759    0.000600
  12 H :    0.109373   -0.000236

----------------------------------------------------
LOEWDIN REDUCED ORBITAL CHARGES AND SPIN POPULATIONS
----------------------------------------------------
CHARGE
  0 C s       :     2.876648  s :     2.876648
      pz      :     1.070461  p :     3.172940
      px      :     1.058896
      py      :     1.043583
      dz2     :     0.031225  d :     0.111237
      dxz     :     0.012631
      dyz     :     0.013006
      dx2y2   :     0.027844
      dxy     :     0.026531
  1 C s       :     3.017953  s :     3.017953
      pz      :     1.057526  p :     3.146089
      px      :     1.058592
      py      :     1.029971
      dz2     :     0.008693  d :     0.056940
      dxz     :     0.015291
      dyz     :     0.007864
      dx2y2   :     0.010160
      dxy     :     0.014932
  2 C s       :     2.963902  s :     2.963902
      pz      :     1.110359  p :     3.271624
      px      :     1.096029
      py      :     1.065236
      dz2     :     0.024035  d :     0.072299
      dxz     :     0.005265
      dyz     :     0.009783
      dx2y2   :     0.018382
      dxy     :     0.014835
  3 C s       :     2.956640  s :     2.956640
      pz      :     1.109150  p :     3.279465
      px      :     1.092203
      py      :     1.078111
      dz2     :     0.023476  d :     0.072705
      dxz     :     0.005131
      dyz     :     0.010682
      dx2y2   :     0.021440
      dxy     :     0.011976
  4 H s       :     0.885822  s :     0.885822
  5 H s       :     0.886993  s :     0.886993
  6 H s       :     0.888348  s :     0.888348
  7 H s       :     0.890280  s :     0.890280
  8 H s       :     0.890965  s :     0.890965
  9 H s       :     0.890094  s :     0.890094
 10 H s       :     0.890188  s :     0.890188
 11 H s       :     0.888241  s :     0.888241
 12 H s       :     0.890627  s :     0.890627

SPIN
  0 C s       :    -0.005132  s :    -0.005132
      pz      :    -0.005127  p :    -0.024132
      px      :    -0.016101
      py      :    -0.002905
      dz2     :     0.002461  d :     0.016505
      dxz     :     0.004339
      dyz     :     0.000463
      dx2y2   :     0.001026
      dxy     :     0.008216
  1 C s       :     0.040738  s :     0.040738
      pz      :     0.353629  p :     0.940712
      px      :     0.032541
      py      :     0.554542
      dz2     :    -0.000349  d :    -0.003843
      dxz     :    -0.000230
      dyz     :    -0.002163
      dx2y2   :    -0.000936
      dxy     :    -0.000164
  2 C s       :     0.016842  s :     0.016842
      pz      :     0.004265  p :     0.032857
      px      :     0.007544
      py      :     0.021048
      dz2     :    -0.000126  d :     0.000473
      dxz     :     0.000139
      dyz     :    -0.000053
      dx2y2   :     0.000525
      dxy     :    -0.000012
  3 C s       :     0.001683  s :     0.001683
      pz      :     0.002664  p :     0.006532
      px      :     0.003049
      py      :     0.000819
      dz2     :     0.000137  d :    -0.000174
      dxz     :    -0.000043
      dyz     :    -0.000011
      dx2y2   :    -0.000239
      dxy     :    -0.000019
  4 H s       :     0.019286  s :     0.019286
  5 H s       :    -0.025914  s :    -0.025914
  6 H s       :    -0.025618  s :    -0.025618
  7 H s       :     0.000150  s :     0.000150
  8 H s       :     0.008536  s :     0.008536
  9 H s       :     0.000074  s :     0.000074
 10 H s       :     0.000061  s :     0.000061
 11 H s       :     0.000600  s :     0.000600
 12 H s       :    -0.000236  s :    -0.000236


                      *****************************
                      * MAYER POPULATION ANALYSIS *
                      *****************************

  NA   - Mulliken gross atomic population
  ZA   - Total nuclear charge
  QA   - Mulliken gross atomic charge
  VA   - Mayer's total valence
  BVA  - Mayer's bonded valence
  FA   - Mayer's free valence

  ATOM       NA         ZA         QA         VA         BVA        FA
  0 C      6.1029     6.0000    -0.1029     4.1948     4.1917     0.0032
  1 C      6.2331     6.0000    -0.2331     3.8901     2.9993     0.8908
  2 C      6.2326     6.0000    -0.2326     3.9358     3.9339     0.0019
  3 C      6.2421     6.0000    -0.2421     3.9555     3.9554     0.0001
  4 H      0.9261     1.0000     0.0739     0.9369     0.9364     0.0005
  5 H      0.8994     1.0000     0.1006     0.9559     0.9531     0.0028
  6 H      0.8995     1.0000     0.1005     0.9498     0.9470     0.0028
  7 H      0.9117     1.0000     0.0883     0.9647     0.9647     0.0000
  8 H      0.9121     1.0000     0.0879     0.9576     0.9574     0.0002
  9 H      0.9116     1.0000     0.0884     0.9589     0.9589     0.0000
 10 H      0.9112     1.0000     0.0888     0.9577     0.9577     0.0000
 11 H      0.9064     1.0000     0.0936     0.9553     0.9553     0.0000
 12 H      0.9114     1.0000     0.0886     0.9615     0.9615     0.0000

  Mayer bond orders larger than 0.100000
B(  0-C ,  1-C ) :   1.0836 B(  0-C ,  2-C ) :   1.0748 B(  0-C ,  3-C ) :   1.0909 
B(  0-C ,  4-H ) :   0.9120 B(  1-C ,  5-H ) :   0.9418 B(  1-C ,  6-H ) :   0.9404 
B(  2-C ,  7-H ) :   0.9580 B(  2-C ,  8-H ) :   0.9528 B(  2-C ,  9-H ) :   0.9589 
B(  3-C , 10-H ) :   0.9584 B(  3-C , 11-H ) :   0.9596 B(  3-C , 12-H ) :   0.9570 


-------
TIMINGS
-------

Total SCF time: 0 days 0 hours 2 min 38 sec 

Total time                  ....     158.161 sec
Sum of individual times     ....     125.278 sec  ( 79.2%)

Fock matrix formation       ....     104.962 sec  ( 66.4%)
  XC integration            ....      57.740 sec  ( 55.0% of F)
    Basis function eval.    ....       0.917 sec  (  1.6% of XC)
    Density eval.           ....       0.527 sec  (  0.9% of XC)
    XC-Functional eval.     ....       0.343 sec  (  0.6% of XC)
    XC-Potential eval.      ....       0.882 sec  (  1.5% of XC)
Diagonalization             ....       1.333 sec  (  0.8%)
Density matrix formation    ....       9.861 sec  (  6.2%)
Population analysis         ....       5.412 sec  (  3.4%)
Initial guess               ....       0.003 sec  (  0.0%)
Orbital Transformation      ....       0.000 sec  (  0.0%)
Orbital Orthonormalization  ....       0.001 sec  (  0.0%)
DIIS solution               ....       1.756 sec  (  1.1%)
Grid generation             ....       1.951 sec  (  1.2%)


-------------------------------------------------------------------------------
                          DFT DISPERSION CORRECTION                            
                                                                               
                              DFTD3 V3.1  Rev 1                                
                          USING Becke-Johnson damping                          
-------------------------------------------------------------------------------
The B3LYP functional is recognized
Active option DFTDOPT                   ...         4   

molecular C6(AA) [au] = 1132.642073 


            DFT-D V3
 parameters
 s6 scaling factor         :     1.0000 
 a1 scaling factor         :     0.3981 
 s8 scaling factor         :     1.9889 
 a2 scaling factor         :     4.4211 
 ad hoc parameters k1-k3   :    16.0000     1.3333    -4.0000 

 Edisp/kcal,au: -9.029039065005  -0.014388688100 
 E6   /kcal   :  -4.469082788 
 E8   /kcal   :  -4.559956277 
 % E8         :  50.503229015 

-------------------------   ----------------
Dispersion correction           -0.014388688
-------------------------   ----------------


-------------------------   --------------------
FINAL SINGLE POINT ENERGY      -157.545007739344
-------------------------   --------------------

                                *** OPTIMIZATION RUN DONE ***

                            ***************************************
                            *     ORCA property calculations      *
                            ***************************************

                                    ---------------------
                                    Active property flags
                                    ---------------------
   (+) Dipole Moment


------------------------------------------------------------------------------
                       ORCA ELECTRIC PROPERTIES CALCULATION
------------------------------------------------------------------------------

Dipole Moment Calculation                       ... on
Quadrupole Moment Calculation                   ... off
Polarizability Calculation                      ... off
GBWName                                         ... orca1.gbw
Electron density file                           ... orca1.scfp
The origin for moment calculation is the CENTER OF MASS  = (-0.085274,  0.164178  0.150355)

-------------
DIPOLE MOMENT
-------------
                                X             Y             Z
Electronic contribution:      1.10675       0.18485       0.66958
Nuclear contribution   :     -1.17818      -0.24329      -0.65468
                        -----------------------------------------
Total Dipole Moment    :     -0.07143      -0.05844       0.01490
                        -----------------------------------------
Magnitude (a.u.)       :      0.09348
Magnitude (Debye)      :      0.23761



--------------------
Rotational spectrum 
--------------------
 
Rotational constants in cm-1:     0.274754     0.261554     0.154978 
Rotational constants in MHz :  8236.921135  7841.178559  4646.110584 

 Dipole components along the rotational axes: 
x,y,z [a.u.] :     0.037228    -0.082581     0.023091 
x,y,z [Debye]:     0.094625    -0.209904     0.058693 

 

Timings for individual modules:

Sum of individual times         ...     8543.352 sec (= 142.389 min)
GTO integral calculation        ...      179.453 sec (=   2.991 min)   2.1 %
SCF iterations                  ...     8167.804 sec (= 136.130 min)  95.6 %
SCF Gradient evaluation         ...      118.962 sec (=   1.983 min)   1.4 %
Geometry relaxation             ...       77.134 sec (=   1.286 min)   0.9 %
                             ****ORCA TERMINATED NORMALLY****
TOTAL RUN TIME: 0 days 2 hours 27 minutes 39 seconds 305 msec
