
                                 *****************
                                 * O   R   C   A *
                                 *****************

           --- An Ab Initio, DFT and Semiempirical electronic structure package ---

                  #######################################################
                  #                        -***-                        #
                  #          Department of theory and spectroscopy      #
                  #               Directorship: Frank Neese             #
                  #        Max Planck Institute fuer Kohlenforschung    #
                  #                Kaiser Wilhelm Platz 1               #
                  #                 D-45470 Muelheim/Ruhr               #
                  #                      Germany                        #
                  #                                                     #
                  #                  All rights reserved                #
                  #                        -***-                        #
                  #######################################################


                         Program Version 4.2.1 -  RELEASE  -


 With contributions from (in alphabetic order):
   Daniel Aravena         : Magnetic Suceptibility
   Michael Atanasov       : Ab Initio Ligand Field Theory (pilot matlab implementation)
   Alexander A. Auer      : GIAO ZORA, VPT2
   Ute Becker             : Parallelization
   Giovanni Bistoni       : ED, misc. LED, open-shell LED, HFLD
   Martin Brehm           : Molecular dynamics
   Dmytro Bykov           : SCF Hessian
   Vijay G. Chilkuri      : MRCI spin determinant printing, contributions to CSF-ICE
   Dipayan Datta          : RHF DLPNO-CCSD density
   Achintya Kumar Dutta   : EOM-CC, STEOM-CC
   Dmitry Ganyushin       : Spin-Orbit,Spin-Spin,Magnetic field MRCI
   Miquel Garcia          : C-PCM Hessian, Gaussian charge scheme
   Yang Guo               : DLPNO-NEVPT2, CIM, IAO-localization
   Andreas Hansen         : Spin unrestricted coupled pair/coupled cluster methods
   Benjamin Helmich-Paris : CASSCF linear response (MC-RPA)
   Lee Huntington         : MR-EOM, pCC
   Robert Izsak           : Overlap fitted RIJCOSX, COSX-SCS-MP3, EOM
   Christian Kollmar      : KDIIS, OOCD, Brueckner-CCSD(T), CCSD density
   Simone Kossmann        : Meta GGA functionals, TD-DFT gradient, OOMP2, MP2 Hessian
   Martin Krupicka        : AUTO-CI
   Lucas Lang             : DCDCAS
   Dagmar Lenk            : GEPOL surface, SMD
   Dimitrios Liakos       : Extrapolation schemes; Compound Job, initial MDCI parallelization
   Dimitrios Manganas     : Further ROCIS development; embedding schemes
   Dimitrios Pantazis     : SARC Basis sets
   Taras Petrenko         : DFT Hessian,TD-DFT gradient, ASA, ECA, R-Raman, ABS, FL, XAS/XES, NRVS
   Peter Pinski           : DLPNO-MP2, DLPNO-MP2 Gradient
   Christoph Reimann      : Effective Core Potentials
   Marius Retegan         : Local ZFS, SOC
   Christoph Riplinger    : Optimizer, TS searches, QM/MM, DLPNO-CCSD(T), (RO)-DLPNO pert. Triples
   Tobias Risthaus        : Range-separated hybrids, TD-DFT gradient, RPA, STAB
   Michael Roemelt        : Original ROCIS implementation
   Masaaki Saitow         : Open-shell DLPNO-CCSD energy and density
   Barbara Sandhoefer     : DKH picture change effects
   Avijit Sen             : IP-ROCIS
   Kantharuban Sivalingam : CASSCF convergence, NEVPT2, FIC-MRCI
   Bernardo de Souza      : ESD, SOC TD-DFT
   Georgi Stoychev        : AutoAux, RI-MP2 NMR
   Willem Van den Heuvel  : Paramagnetic NMR
   Boris Wezisla          : Elementary symmetry handling
   Frank Wennmohs         : Technical directorship


 We gratefully acknowledge several colleagues who have allowed us to
 interface, adapt or use parts of their codes:
   Stefan Grimme, W. Hujo, H. Kruse,             : VdW corrections, initial TS optimization,
                  C. Bannwarth                     DFT functionals, gCP, sTDA/sTD-DF
   Ed Valeev, F. Pavosevic, A. Kumar             : LibInt (2-el integral package), F12 methods
   Garnet Chan, S. Sharma, J. Yang, R. Olivares  : DMRG
   Ulf Ekstrom                                   : XCFun DFT Library
   Mihaly Kallay                                 : mrcc  (arbitrary order and MRCC methods)
   Andreas Klamt, Michael Diedenhofen            : otool_cosmo (COSMO solvation model)
   Jiri Pittner, Ondrej Demel                    : Mk-CCSD
   Frank Weinhold                                : gennbo (NPA and NBO analysis)
   Christopher J. Cramer and Donald G. Truhlar   : smd solvation model
   Lars Goerigk                                  : TD-DFT with DH, B97 family of functionals
   V. Asgeirsson, H. Jonsson                     : NEB implementation
   FAccTs GmbH                                   : IRC, NEB, NEB-TS, Multilevel, MM, QM/MM, CI optimization
   S Lehtola, MJT Oliveira, MAL Marques          : LibXC Library


 Your calculation uses the libint2 library for the computation of 2-el integrals
 For citations please refer to: http://libint.valeyev.net

 Your ORCA version has been built with support for libXC version: 4.2.3
 For citations please refer to: https://tddft.org/programs/libxc/

 This ORCA versions uses:
   CBLAS   interface :  Fast vector & matrix operations
   LAPACKE interface :  Fast linear algebra routines
   SCALAPACK package :  Parallel linear algebra routines


Your calculation utilizes the atom-pairwise dispersion correction
with the Becke-Johnson damping scheme (D3BJ)
Cite in your paper:
S.Grimme, S.Ehrlich, L.Goerigk, J Comput Chem, (2011), 32, 1456–1465 
S.Grimme, J.Antony, S.Ehrlich and H.Krieg, J.Chem.Phys., 132, (2010), 154104 
   

----- Orbital basis set information -----
Your calculation utilizes the basis: def2-SV(P)
   F. Weigend and R. Ahlrichs, Phys. Chem. Chem. Phys. 7, 3297 (2005).

----- AuxJ basis set information -----
Your calculation utilizes the auxiliary basis: def2/J
   F. Weigend, Phys. Chem. Chem. Phys. 8, 1057 (2006).

================================================================================
                                        WARNINGS
                       Please study these warnings very carefully!
================================================================================


WARNING: Geometry Optimization
  ===> : Switching off AutoStart
         For restart on a previous wavefunction, please use MOREAD

INFO   : the flag for use of LIBINT has been found!

================================================================================
                                       INPUT FILE
================================================================================
NAME = orca9.inp
|  1> ! UKS B3LYP def2-SV(P) def2/J D3BJ Opt
|  2> %scf Convergence VeryTight
|  3> SmearTemp 2000
|  4> maxiter 500
|  5> end
|  6> *xyz 0 2
|  7> C 0.014335 0.133011 0.331503
|  8> C -0.896459 1.134156 -0.320904
|  9> C 1.395599 0.109987 -0.247402
| 10> C -0.539714 -1.273797 0.304892
| 11> H 0.086116 0.436608 1.407166
| 12> H -1.866118 1.098276 0.231732
| 13> H -1.08879 0.948749 -1.384881
| 14> H 1.565125 0.832498 -1.056706
| 15> H 1.673083 -0.90264 -0.636779
| 16> H 2.162445 0.326202 0.539492
| 17> H -1.345636 -1.412934 -0.433157
| 18> H -0.944143 -1.558993 1.309056
| 19> H 0.265764 -2.009744 0.056049
| 20> *
| 21> 
| 22>                          ****END OF INPUT****
================================================================================

                       *****************************
                       * Geometry Optimization Run *
                       *****************************

Geometry optimization settings:
Update method            Update   .... BFGS
Choice of coordinates    CoordSys .... Z-matrix Internals
Initial Hessian          InHess   .... Almoef's Model

Convergence Tolerances:
Energy Change            TolE     ....  5.0000e-06 Eh
Max. Gradient            TolMAXG  ....  3.0000e-04 Eh/bohr
RMS Gradient             TolRMSG  ....  1.0000e-04 Eh/bohr
Max. Displacement        TolMAXD  ....  4.0000e-03 bohr
RMS Displacement         TolRMSD  ....  2.0000e-03 bohr
Strict Convergence                ....  False
------------------------------------------------------------------------------
                        ORCA OPTIMIZATION COORDINATE SETUP
------------------------------------------------------------------------------

The optimization will be done in new redundant internal coordinates
Making redundant internal coordinates   ...  (new redundants) done
Evaluating the initial hessian          ...  (Almloef) done
Evaluating the coordinates              ...  done
Calculating the B-matrix                .... done
Calculating the G-matrix                .... done
Diagonalizing the G-matrix              .... done
The first mode is                       ....   24
The number of degrees of freedom        ....   33

    -----------------------------------------------------------------
                    Redundant Internal Coordinates


    -----------------------------------------------------------------
         Definition                    Initial Value    Approx d2E/dq
    -----------------------------------------------------------------
      1. B(C   1,C   0)                  1.5025         0.413305   
      2. B(C   2,C   0)                  1.4978         0.420409   
      3. B(C   3,C   0)                  1.5122         0.398801   
      4. B(H   4,C   0)                  1.1200         0.322536   
      5. B(H   5,C   1)                  1.1167         0.326503   
      6. B(H   6,C   1)                  1.0970         0.350955   
      7. B(H   7,C   2)                  1.0981         0.349595   
      8. B(H   8,C   2)                  1.1198         0.322721   
      9. B(H   9,C   2)                  1.1198         0.322732   
     10. B(H  10,C   3)                  1.1016         0.345041   
     11. B(H  11,C   3)                  1.1195         0.323134   
     12. B(H  12,C   3)                  1.1191         0.323617   
     13. A(C   1,C   0,H   4)          105.9776         0.323835   
     14. A(C   2,C   0,H   4)          108.4368         0.324742   
     15. A(C   1,C   0,C   2)          113.6675         0.377305   
     16. A(C   1,C   0,C   3)          112.9633         0.373882   
     17. A(C   2,C   0,C   3)          108.4674         0.374983   
     18. A(C   3,C   0,H   4)          107.0113         0.321944   
     19. A(H   5,C   1,H   6)          108.8037         0.285268   
     20. A(C   0,C   1,H   6)          114.5072         0.328366   
     21. A(C   0,C   1,H   5)          106.8630         0.324485   
     22. A(H   7,C   2,H   9)          106.5673         0.284581   
     23. A(C   0,C   2,H   9)          110.9123         0.324775   
     24. A(H   7,C   2,H   8)          107.4858         0.284579   
     25. A(C   0,C   2,H   8)          112.1350         0.324773   
     26. A(H   8,C   2,H   9)          104.4328         0.281072   
     27. A(C   0,C   2,H   7)          114.6524         0.329080   
     28. A(H  11,C   3,H  12)          106.9746         0.281247   
     29. A(H  10,C   3,H  12)          107.1292         0.284122   
     30. A(C   0,C   3,H  12)          110.6097         0.322120   
     31. A(H  10,C   3,H  11)          107.7269         0.284056   
     32. A(C   0,C   3,H  11)          110.7062         0.322041   
     33. A(C   0,C   3,H  10)          113.4109         0.325527   
     34. D(H   6,C   1,C   0,C   3)    -61.4530         0.012644   
     35. D(H   6,C   1,C   0,H   4)   -178.3140         0.012644   
     36. D(H   6,C   1,C   0,C   2)     62.6951         0.012644   
     37. D(H   5,C   1,C   0,H   4)    -57.7605         0.012644   
     38. D(H   5,C   1,C   0,C   2)   -176.7515         0.012644   
     39. D(H   5,C   1,C   0,C   3)     59.1005         0.012644   
     40. D(H   7,C   2,C   0,C   1)      0.8543         0.013983   
     41. D(H   9,C   2,C   0,C   1)    121.5998         0.013983   
     42. D(H   8,C   2,C   0,H   4)    120.3505         0.013983   
     43. D(H   8,C   2,C   0,C   1)   -122.0741         0.013983   
     44. D(H   7,C   2,C   0,H   4)   -116.7211         0.013983   
     45. D(H   7,C   2,C   0,C   3)    127.4004         0.013983   
     46. D(H   9,C   2,C   0,C   3)   -111.8541         0.013983   
     47. D(H   9,C   2,C   0,H   4)      4.0244         0.013983   
     48. D(H   8,C   2,C   0,C   3)      4.4720         0.013983   
     49. D(H  12,C   3,C   0,H   4)   -105.7345         0.012621   
     50. D(H  12,C   3,C   0,C   1)    138.0169         0.012621   
     51. D(H  11,C   3,C   0,H   4)     12.6639         0.012621   
     52. D(H  11,C   3,C   0,C   2)    129.4627         0.012621   
     53. D(H  11,C   3,C   0,C   1)   -103.5847         0.012621   
     54. D(H  10,C   3,C   0,H   4)    133.8864         0.012621   
     55. D(H  12,C   3,C   0,C   2)     11.0644         0.012621   
     56. D(H  10,C   3,C   0,C   2)   -109.3147         0.012621   
     57. D(H  10,C   3,C   0,C   1)     17.6379         0.012621   
    -----------------------------------------------------------------

Number of atoms                         .... 13
Number of degrees of freedom            .... 57

Time needed for optimization step       :     1.67 sec

         *************************************************************
         *                GEOMETRY OPTIMIZATION CYCLE   1            *
         *************************************************************
---------------------------------
CARTESIAN COORDINATES (ANGSTROEM)
---------------------------------
  C      0.014335    0.133011    0.331503
  C     -0.896459    1.134156   -0.320904
  C      1.395599    0.109987   -0.247402
  C     -0.539714   -1.273797    0.304892
  H      0.086116    0.436608    1.407166
  H     -1.866118    1.098276    0.231732
  H     -1.088790    0.948749   -1.384881
  H      1.565125    0.832498   -1.056706
  H      1.673083   -0.902640   -0.636779
  H      2.162445    0.326202    0.539492
  H     -1.345636   -1.412934   -0.433157
  H     -0.944143   -1.558993    1.309056
  H      0.265764   -2.009744    0.056049

----------------------------
CARTESIAN COORDINATES (A.U.)
----------------------------
  NO LB      ZA    FRAG     MASS         X           Y           Z
   0 C     6.0000    0    12.011    0.027089    0.251354    0.626450
   1 C     6.0000    0    12.011   -1.694062    2.143244   -0.606421
   2 C     6.0000    0    12.011    2.637300    0.207845   -0.467522
   3 C     6.0000    0    12.011   -1.019912   -2.407127    0.576162
   4 H     1.0000    0     1.008    0.162736    0.825070    2.659158
   5 H     1.0000    0     1.008   -3.526452    2.075441    0.437910
   6 H     1.0000    0     1.008   -2.057515    1.792876   -2.617046
   7 H     1.0000    0     1.008    2.957658    1.573193   -1.996885
   8 H     1.0000    0     1.008    3.161669   -1.705742   -1.203338
   9 H     1.0000    0     1.008    4.086429    0.616432    1.019492
  10 H     1.0000    0     1.008   -2.542884   -2.670058   -0.818548
  11 H     1.0000    0     1.008   -1.784172   -2.946070    2.473757
  12 H     1.0000    0     1.008    0.502221   -3.797866    0.105917

--------------------------------
INTERNAL COORDINATES (ANGSTROEM)
--------------------------------
 C      0   0   0     0.000000000000     0.00000000     0.00000000
 C      1   0   0     1.502488574036     0.00000000     0.00000000
 C      1   2   0     1.497848904695   113.66752426     0.00000000
 C      1   2   3     1.512212679680   112.96329058   235.85194277
 H      1   2   3     1.119988633844   105.97764547   118.99094967
 H      2   1   3     1.116661318027   106.86300062   183.24854270
 H      2   1   3     1.097002290672   114.50723620    62.69506507
 H      3   1   2     1.098059276275   114.65238516     0.85425963
 H      3   1   2     1.119832692644   112.13501385   237.92592800
 H      3   1   2     1.119823147277   110.91228231   121.59977593
 H      4   1   2     1.101628658512   113.41094835    17.63786487
 H      4   1   2     1.119484217554   110.70617802   256.41529983
 H      4   1   2     1.119078028532   110.60968734   138.01694353

---------------------------
INTERNAL COORDINATES (A.U.)
---------------------------
 C      0   0   0     0.000000000000     0.00000000     0.00000000
 C      1   0   0     2.839291924275     0.00000000     0.00000000
 C      1   2   0     2.830524219868   113.66752426     0.00000000
 C      1   2   3     2.857667820839   112.96329058   235.85194277
 H      1   2   3     2.116471791069   105.97764547   118.99094967
 H      2   1   3     2.110184075414   106.86300062   183.24854270
 H      2   1   3     2.073033897654   114.50723620    62.69506507
 H      3   1   2     2.075031310971   114.65238516     0.85425963
 H      3   1   2     2.116177104909   112.13501385   237.92592800
 H      3   1   2     2.116159066779   110.91228231   121.59977593
 H      4   1   2     2.081776465866   113.41094835    17.63786487
 H      4   1   2     2.115518582425   110.70617802   256.41529983
 H      4   1   2     2.114750996413   110.60968734   138.01694353

---------------------
BASIS SET INFORMATION
---------------------
There are 2 groups of distinct atoms

 Group   1 Type C   : 7s4p1d contracted to 3s2p1d pattern {511/31/1}
 Group   2 Type H   : 4s contracted to 2s pattern {31}

Atom   0C    basis set group =>   1
Atom   1C    basis set group =>   1
Atom   2C    basis set group =>   1
Atom   3C    basis set group =>   1
Atom   4H    basis set group =>   2
Atom   5H    basis set group =>   2
Atom   6H    basis set group =>   2
Atom   7H    basis set group =>   2
Atom   8H    basis set group =>   2
Atom   9H    basis set group =>   2
Atom  10H    basis set group =>   2
Atom  11H    basis set group =>   2
Atom  12H    basis set group =>   2
---------------------------------
AUXILIARY/J BASIS SET INFORMATION
---------------------------------
There are 2 groups of distinct atoms

 Group   1 Type C   : 12s5p4d2f1g contracted to 6s4p3d1f1g pattern {711111/2111/211/2/1}
 Group   2 Type H   : 5s2p1d contracted to 3s1p1d pattern {311/2/1}

Atom   0C    basis set group =>   1
Atom   1C    basis set group =>   1
Atom   2C    basis set group =>   1
Atom   3C    basis set group =>   1
Atom   4H    basis set group =>   2
Atom   5H    basis set group =>   2
Atom   6H    basis set group =>   2
Atom   7H    basis set group =>   2
Atom   8H    basis set group =>   2
Atom   9H    basis set group =>   2
Atom  10H    basis set group =>   2
Atom  11H    basis set group =>   2
Atom  12H    basis set group =>   2
------------------------------------------------------------------------------
                           ORCA GTO INTEGRAL CALCULATION
------------------------------------------------------------------------------

                         BASIS SET STATISTICS AND STARTUP INFO

 # of primitive gaussian shells          ...   84
 # of primitive gaussian functions       ...  132
 # of contracted shells                  ...   42
 # of contracted basis functions         ...   74
 Highest angular momentum                ...    2
 Maximum contraction depth               ...    5
 Integral package used                   ... LIBINT
 Integral threshhold            Thresh   ...  1.000e-12
 Primitive cut-off              TCut     ...  1.000e-14


------------------------------ INTEGRAL EVALUATION ----------------------------


 * One electron integrals 
 Pre-screening matrix                    ... done
 Shell pair data                         ... done (   0.000 sec)

-------------------------------------------------------------------------------
                                 ORCA SCF
-------------------------------------------------------------------------------

------------
SCF SETTINGS
------------
Hamiltonian:
 Density Functional     Method          .... DFT(GTOs)
 Exchange Functional    Exchange        .... B88
   X-Alpha parameter    XAlpha          ....  0.666667
   Becke's b parameter  XBeta           ....  0.004200
 Correlation Functional Correlation     .... LYP
 LDA part of GGA corr.  LDAOpt          .... VWN-5
 Gradients option       PostSCFGGA      .... off
 Hybrid DFT is turned on
   Fraction HF Exchange ScalHFX         ....  0.200000
   Scaling of DF-GGA-X  ScalDFX         ....  0.720000
   Scaling of DF-GGA-C  ScalDFC         ....  0.810000
   Scaling of DF-LDA-C  ScalLDAC        ....  1.000000
   Perturbative correction              ....  0.000000
   Density functional embedding theory  .... OFF
   NL short-range parameter             ....  4.800000


General Settings:
 Integral files         IntName         .... orca9
 Hartree-Fock type      HFTyp           .... UHF
 Total Charge           Charge          ....    0
 Multiplicity           Mult            ....    2
 Number of Electrons    NEL             ....   33
 Basis Dimension        Dim             ....   74
 Nuclear Repulsion      ENuc            ....    127.0970587538 Eh

Convergence Acceleration:
 DIIS                   CNVDIIS         .... on
   Start iteration      DIISMaxIt       ....    12
   Startup error        DIISStart       ....  0.200000
   # of expansion vecs  DIISMaxEq       ....     5
   Bias factor          DIISBfac        ....   1.050
   Max. coefficient     DIISMaxC        ....  10.000
 Newton-Raphson         CNVNR           .... off
 SOSCF                  CNVSOSCF        .... off
 Level Shifting         CNVShift        .... on
   Level shift para.    LevelShift      ....    0.2500
   Turn off err/grad.   ShiftErr        ....    0.0010
 Zerner damping         CNVZerner       .... off
 Static damping         CNVDamp         .... on
   Fraction old density DampFac         ....    0.7000
   Max. Damping (<1)    DampMax         ....    0.9800
   Min. Damping (>=0)   DampMin         ....    0.0000
   Turn off err/grad.   DampErr         ....    0.1000
 Fernandez-Rico         CNVRico         .... off

SCF Procedure:
 Maximum # iterations   MaxIter         ....   500
 SCF integral mode      SCFMode         .... Direct
   Integral package                     .... LIBINT
 Reset frequency        DirectResetFreq ....    20
 Integral Threshold     Thresh          ....  1.000e-12 Eh
 Primitive CutOff       TCut            ....  1.000e-14 Eh

Convergence Tolerance:
 Convergence Check Mode ConvCheckMode   .... Total+1el-Energy
 Convergence forced     ConvForced      .... 0
 Energy Change          TolE            ....  1.000e-09 Eh
 1-El. energy change                    ....  1.000e-06 Eh
 DIIS Error             TolErr          ....  1.000e-08


Diagonalization of the overlap matrix:
Smallest eigenvalue                        ... 1.832e-03
Time for diagonalization                   ...    0.002 sec
Threshold for overlap eigenvalues          ... 1.000e-08
Number of eigenvalues below threshold      ... 0
Time for construction of square roots      ...    4.285 sec
Total time needed                          ...    4.287 sec

-------------------
DFT GRID GENERATION
-------------------

General Integration Accuracy     IntAcc      ...  4.340
Radial Grid Type                 RadialGrid  ... Gauss-Chebyshev
Angular Grid (max. acc.)         AngularGrid ... Lebedev-110
Angular grid pruning method      GridPruning ... 3 (G Style)
Weight generation scheme         WeightScheme... Becke
Basis function cutoff            BFCut       ...    1.0000e-12
Integration weight cutoff        WCut        ...    1.0000e-14
Grids for H and He will be reduced by one unit

# of grid points (after initial pruning)     ...  13770 (   0.0 sec)
# of grid points (after weights+screening)   ...  12887 (   0.0 sec)
nearest neighbour list constructed           ...    0.0 sec
Grid point re-assignment to atoms done       ...    0.0 sec
Grid point division into batches done        ...    0.0 sec
Reduced shell lists constructed in    0.1 sec

Total number of grid points                  ...    12887
Total number of batches                      ...      208
Average number of points per batch           ...       61
Average number of grid points per atom       ...      991
Average number of shells per batch           ...    37.27 (88.74%)
Average number of basis functions per batch  ...    66.51 (89.87%)
Average number of large shells per batch     ...    32.71 (87.77%)
Average number of large basis fcns per batch ...    58.01 (87.23%)
Maximum spatial batch extension              ...  20.05, 20.34, 19.99 au
Average spatial batch extension              ...   3.95,  4.01,  3.77 au

Time for grid setup =    2.214 sec

------------------------------
INITIAL GUESS: MODEL POTENTIAL
------------------------------
Loading Hartree-Fock densities                     ... done
Calculating cut-offs                               ... done
Setting up the integral package                    ... done
Initializing the effective Hamiltonian             ... done
Starting the Coulomb interaction                   ... done (   0.0 sec)
Reading the grid                                   ... done
Mapping shells                                     ... done
Starting the XC term evaluation                    ... done (   0.1 sec)
  promolecular density results
     # of electrons  =     32.995119186
     EX              =    -23.187409160
     EC              =     -1.032171732
     EX+EC           =    -24.219580892
Transforming the Hamiltonian                       ... done (   0.0 sec)
Diagonalizing the Hamiltonian                      ... done (   0.0 sec)
Back transforming the eigenvectors                 ... done (   0.0 sec)
Now organizing SCF variables                       ... done
                      ------------------
                      INITIAL GUESS DONE (   2.4 sec)
                      ------------------
--------------
SCF ITERATIONS
--------------
ITER       Energy         Delta-E        Max-DP      RMS-DP      [F,P]     Damp
               ***  Starting incremental Fock matrix formation  ***
  0   -157.3549200112   0.000000000000 0.04268851  0.00209674  0.1717567 0.7000
  1   -157.4234977074  -0.068577696162 0.02614045  0.00150727  0.0877426 0.7000
                               ***Turning on DIIS***
  2   -157.4510119045  -0.027514197073 0.03678507  0.00249813  0.0317921 0.0000
  3   -157.4888785951  -0.037866690654 0.01789967  0.00106888  0.0487444 0.0000
  4   -157.5010945010  -0.012215905939 0.00620801  0.00032460  0.0090060 0.0000
  5   -157.5017042268  -0.000609725708 0.00185619  0.00011340  0.0020632 0.0000
  6   -157.5017559023  -0.000051675500 0.00171286  0.00007590  0.0006057 0.0000
  7   -157.5017671708  -0.000011268592 0.00039511  0.00001427  0.0001822 0.0000
  8   -157.5017680113  -0.000000840470 0.00012659  0.00000453  0.0001039 0.0000
  9   -157.5017681134  -0.000000102119 0.00006068  0.00000194  0.0000461 0.0000
 10   -157.5017681355  -0.000000022079 0.00002105  0.00000077  0.0000083 0.0000
 11   -157.5017681396  -0.000000004092 0.00001048  0.00000044  0.0000032 0.0000
 12   -157.5017681407  -0.000000001104 0.00000340  0.00000011  0.0000019 0.0000
 13   -157.5017681408  -0.000000000134 0.00000374  0.00000014  0.0000009 0.0000
 14   -157.5017681410  -0.000000000104 0.00000133  0.00000005  0.0000004 0.0000
 15   -157.5017681410  -0.000000000015 0.00000076  0.00000003  0.0000002 0.0000
 16   -157.5017681410   0.000000000003 0.00000014  0.00000001  0.0000001 0.0000
                 **** Energy Check signals convergence ****

 Fermi smearing  (ALPHA): E(HOMO(Eh)) = -0.315959 MUE = -0.088080 gap=   7.772 eV
 Fermi smearing   (BETA): E(HOMO(Eh)) = -0.312480 MUE = -0.188402 gap=   6.724 eV

N_FOD(alpha) =  0.000000
 N_FOD(beta) =  0.000000
       N_FOD =  0.000000

               *****************************************************
               *                     SUCCESS                       *
               *           SCF CONVERGED AFTER  17 CYCLES          *
               *****************************************************

Setting up the final grid:

General Integration Accuracy     IntAcc      ...  4.670
Radial Grid Type                 RadialGrid  ... Gauss-Chebyshev
Angular Grid (max. acc.)         AngularGrid ... Lebedev-302
Angular grid pruning method      GridPruning ... 3 (G Style)
Weight generation scheme         WeightScheme... Becke
Basis function cutoff            BFCut       ...    1.0000e-12
Integration weight cutoff        WCut        ...    1.0000e-14
Grids for H and He will be reduced by one unit

# of grid points (after initial pruning)     ...  55394 (   0.0 sec)
# of grid points (after weights+screening)   ...  51173 (   0.1 sec)
nearest neighbour list constructed           ...    0.0 sec
Grid point re-assignment to atoms done       ...    0.0 sec
Grid point division into batches done        ...    0.1 sec
Reduced shell lists constructed in    0.3 sec

Total number of grid points                  ...    51173
Total number of batches                      ...      807
Average number of points per batch           ...       63
Average number of grid points per atom       ...     3936
Average number of shells per batch           ...    35.00 (83.34%)
Average number of basis functions per batch  ...    62.28 (84.16%)
Average number of large shells per batch     ...    30.12 (86.06%)
Average number of large basis fcns per batch ...    53.07 (85.22%)
Maximum spatial batch extension              ...  18.61, 21.15, 20.48 au
Average spatial batch extension              ...   2.64,  2.71,  2.64 au

Final grid set up in    4.8 sec
Final integration                            ... done (  13.0 sec)
Change in XC energy                          ...    -0.000340134
Integrated number of electrons               ...    33.000030386
Previous integrated no of electrons          ...    32.999571492

----------------
TOTAL SCF ENERGY
----------------

Total Energy       :         -157.50210827 Eh           -4285.85025 eV

Components:
Nuclear Repulsion  :          127.09705875 Eh            3458.48679 eV
Electronic Energy  :         -284.59916703 Eh           -7744.33705 eV
One Electron Energy:         -461.67815166 Eh          -12562.90119 eV
Two Electron Energy:          177.07898463 Eh            4818.56414 eV

Virial components:
Potential Energy   :         -313.41232215 Eh           -8528.38286 eV
Kinetic Energy     :          155.91021387 Eh            4242.53261 eV
Virial Ratio       :            2.01021033


DFT components:
N(Alpha)           :       17.000017716366 electrons
N(Beta)            :       16.000012670005 electrons
N(Total)           :       33.000030386370 electrons
E(X)               :      -18.888835687144 Eh       
E(C)               :       -1.221012565823 Eh       
E(XC)              :      -20.109848252968 Eh       
DFET-embed. en.    :        0.000000000000 Eh       

---------------
SCF CONVERGENCE
---------------

  Last Energy change         ...   -1.0942e-11  Tolerance :   1.0000e-09
  Last MAX-Density change    ...    1.3131e-07  Tolerance :   1.0000e-08
  Last RMS-Density change    ...    5.6964e-09  Tolerance :   1.0000e-09
  Last DIIS Error            ...    2.2501e-08  Tolerance :   1.0000e-08

             **** THE GBW FILE WAS UPDATED (orca9.gbw) ****
             **** DENSITY FILE WAS UPDATED (orca9.scfp) ****
             **** ENERGY FILE WAS UPDATED (orca9.en.tmp) ****
             **** THE GBW FILE WAS UPDATED (orca9.gbw) ****
             **** DENSITY FILE WAS UPDATED (orca9.scfp) ****
----------------
ORBITAL ENERGIES
----------------
                 SPIN UP ORBITALS
  NO   OCC          E(Eh)            E(eV) 
   0   1.0000     -10.188754      -277.2501 
   1   1.0000     -10.182670      -277.0845 
   2   1.0000     -10.173156      -276.8256 
   3   1.0000     -10.163172      -276.5540 
   4   1.0000      -0.804775       -21.8990 
   5   1.0000      -0.671636       -18.2762 
   6   1.0000      -0.668333       -18.1863 
   7   1.0000      -0.550432       -14.9780 
   8   1.0000      -0.461347       -12.5539 
   9   1.0000      -0.438125       -11.9220 
  10   1.0000      -0.413494       -11.2517 
  11   1.0000      -0.390735       -10.6324 
  12   1.0000      -0.386039       -10.5047 
  13   1.0000      -0.339655        -9.2425 
  14   1.0000      -0.327451        -8.9104 
  15   1.0000      -0.315959        -8.5977 
  16   1.0000      -0.230893        -6.2829 
  17   0.0000       0.054732         1.4893 
  18   0.0000       0.082203         2.2369 
  19   0.0000       0.101184         2.7534 
  20   0.0000       0.110321         3.0020 
  21   0.0000       0.118249         3.2177 
  22   0.0000       0.138967         3.7815 
  23   0.0000       0.148200         4.0327 
  24   0.0000       0.164910         4.4874 
  25   0.0000       0.169312         4.6072 
  26   0.0000       0.230943         6.2843 
  27   0.0000       0.280509         7.6330 
  28   0.0000       0.293426         7.9845 
  29   0.0000       0.403556        10.9813 
  30   0.0000       0.433761        11.8032 
  31   0.0000       0.442504        12.0411 
  32   0.0000       0.497211        13.5298 
  33   0.0000       0.507015        13.7966 
  34   0.0000       0.523704        14.2507 
  35   0.0000       0.563574        15.3356 
  36   0.0000       0.578840        15.7510 
  37   0.0000       0.623385        16.9632 
  38   0.0000       0.631310        17.1788 
  39   0.0000       0.665662        18.1136 
  40   0.0000       0.670074        18.2336 
  41   0.0000       0.684242        18.6192 
  42   0.0000       0.688000        18.7214 
  43   0.0000       0.695279        18.9195 
  44   0.0000       0.714347        19.4384 
  45   0.0000       0.718743        19.5580 
  46   0.0000       0.720390        19.6028 
  47   0.0000       0.739052        20.1106 
  48   0.0000       0.753094        20.4927 
  49   0.0000       0.768678        20.9168 
  50   0.0000       0.786913        21.4130 
  51   0.0000       0.865331        23.5468 
  52   0.0000       0.972984        26.4762 
  53   0.0000       1.091006        29.6878 
  54   0.0000       1.384549        37.6755 
  55   0.0000       1.417183        38.5635 
  56   0.0000       1.739028        47.3213 
  57   0.0000       1.774636        48.2903 
  58   0.0000       1.817524        49.4573 
  59   0.0000       1.837278        49.9949 
  60   0.0000       1.894524        51.5526 
  61   0.0000       1.930798        52.5397 
  62   0.0000       1.965611        53.4870 
  63   0.0000       2.000127        54.4262 
  64   0.0000       2.054530        55.9066 
  65   0.0000       2.108665        57.3797 
  66   0.0000       2.153265        58.5933 
  67   0.0000       2.184054        59.4311 
  68   0.0000       2.209013        60.1103 
  69   0.0000       2.406719        65.4902 
  70   0.0000       2.448145        66.6174 
  71   0.0000       2.486297        67.6556 
  72   0.0000       2.704267        73.5868 
  73   0.0000       2.715290        73.8868 

                 SPIN DOWN ORBITALS
  NO   OCC          E(Eh)            E(eV) 
   0   1.0000     -10.183031      -277.0943 
   1   1.0000     -10.173429      -276.8331 
   2   1.0000     -10.171706      -276.7862 
   3   1.0000     -10.162936      -276.5475 
   4   1.0000      -0.798145       -21.7186 
   5   1.0000      -0.669340       -18.2137 
   6   1.0000      -0.647429       -17.6174 
   7   1.0000      -0.543416       -14.7871 
   8   1.0000      -0.457812       -12.4577 
   9   1.0000      -0.434532       -11.8242 
  10   1.0000      -0.404542       -11.0082 
  11   1.0000      -0.386712       -10.5230 
  12   1.0000      -0.379893       -10.3374 
  13   1.0000      -0.333929        -9.0867 
  14   1.0000      -0.324592        -8.8326 
  15   1.0000      -0.312480        -8.5030 
  16   0.0000      -0.065378        -1.7790 
  17   0.0000       0.056090         1.5263 
  18   0.0000       0.083045         2.2598 
  19   0.0000       0.104393         2.8407 
  20   0.0000       0.112477         3.0607 
  21   0.0000       0.122523         3.3340 
  22   0.0000       0.146502         3.9865 
  23   0.0000       0.149221         4.0605 
  24   0.0000       0.166527         4.5314 
  25   0.0000       0.172620         4.6972 
  26   0.0000       0.233747         6.3606 
  27   0.0000       0.282529         7.6880 
  28   0.0000       0.303076         8.2471 
  29   0.0000       0.405958        11.0467 
  30   0.0000       0.444375        12.0921 
  31   0.0000       0.447685        12.1821 
  32   0.0000       0.510603        13.8942 
  33   0.0000       0.522411        14.2155 
  34   0.0000       0.540037        14.6952 
  35   0.0000       0.583813        15.8864 
  36   0.0000       0.592542        16.1239 
  37   0.0000       0.628438        17.1007 
  38   0.0000       0.637960        17.3598 
  39   0.0000       0.669682        18.2230 
  40   0.0000       0.673905        18.3379 
  41   0.0000       0.688762        18.7422 
  42   0.0000       0.690853        18.7991 
  43   0.0000       0.702165        19.1069 
  44   0.0000       0.719383        19.5754 
  45   0.0000       0.724196        19.7064 
  46   0.0000       0.725723        19.7479 
  47   0.0000       0.742102        20.1936 
  48   0.0000       0.757236        20.6054 
  49   0.0000       0.772385        21.0177 
  50   0.0000       0.791807        21.5462 
  51   0.0000       0.871556        23.7163 
  52   0.0000       0.975721        26.5507 
  53   0.0000       1.093485        29.7552 
  54   0.0000       1.392777        37.8994 
  55   0.0000       1.425662        38.7942 
  56   0.0000       1.763945        47.9994 
  57   0.0000       1.799311        48.9617 
  58   0.0000       1.819904        49.5221 
  59   0.0000       1.863089        50.6972 
  60   0.0000       1.931169        52.5498 
  61   0.0000       1.944176        52.9037 
  62   0.0000       1.967489        53.5381 
  63   0.0000       2.022596        55.0376 
  64   0.0000       2.067991        56.2729 
  65   0.0000       2.120373        57.6983 
  66   0.0000       2.155574        58.6562 
  67   0.0000       2.194801        59.7236 
  68   0.0000       2.220572        60.4248 
  69   0.0000       2.421459        65.8912 
  70   0.0000       2.454939        66.8023 
  71   0.0000       2.490570        67.7719 
  72   0.0000       2.714781        73.8730 
  73   0.0000       2.718863        73.9840 

                    ********************************
                    * MULLIKEN POPULATION ANALYSIS *
                    ********************************

------------------------------------------
FOD BASED MULLIKEN REDUCED ORBITAL CHARGES
------------------------------------------
  0 C s       :    -0.000000  s :    -0.000000
      pz      :     0.000000  p :     0.000000
      px      :     0.000000
      py      :     0.000000
      dz2     :     0.000000  d :     0.000000
      dxz     :     0.000000
      dyz     :     0.000000
      dx2y2   :     0.000000
      dxy     :     0.000000
  1 C s       :     0.000000  s :     0.000000
      pz      :     0.000000  p :     0.000000
      px      :     0.000000
      py      :     0.000000
      dz2     :     0.000000  d :     0.000000
      dxz     :     0.000000
      dyz     :     0.000000
      dx2y2   :     0.000000
      dxy     :     0.000000
  2 C s       :    -0.000000  s :    -0.000000
      pz      :     0.000000  p :     0.000000
      px      :     0.000000
      py      :     0.000000
      dz2     :     0.000000  d :     0.000000
      dxz     :     0.000000
      dyz     :     0.000000
      dx2y2   :     0.000000
      dxy     :     0.000000
  3 C s       :    -0.000000  s :    -0.000000
      pz      :     0.000000  p :     0.000000
      px      :     0.000000
      py      :     0.000000
      dz2     :     0.000000  d :     0.000000
      dxz     :     0.000000
      dyz     :     0.000000
      dx2y2   :     0.000000
      dxy     :     0.000000
  4 H s       :     0.000000  s :     0.000000
  5 H s       :     0.000000  s :     0.000000
  6 H s       :     0.000000  s :     0.000000
  7 H s       :     0.000000  s :     0.000000
  8 H s       :     0.000000  s :     0.000000
  9 H s       :     0.000000  s :     0.000000
 10 H s       :     0.000000  s :     0.000000
 11 H s       :     0.000000  s :     0.000000
 12 H s       :     0.000000  s :     0.000000


                     *******************************
                     * LOEWDIN POPULATION ANALYSIS *
                     *******************************

-------------------------------------------
LOEWDIN ATOMIC CHARGES AND SPIN POPULATIONS
-------------------------------------------
   0 C :   -0.177990    0.000485
   1 C :   -0.200704    0.951516
   2 C :   -0.311852    0.007845
   3 C :   -0.303251    0.048472
   4 H :    0.112973    0.008894
   5 H :    0.103034   -0.013961
   6 H :    0.105783   -0.009927
   7 H :    0.112384    0.000012
   8 H :    0.106489   -0.000627
   9 H :    0.113456   -0.000682
  10 H :    0.113080    0.001038
  11 H :    0.113074    0.000242
  12 H :    0.113524    0.006693

----------------------------------------------------
LOEWDIN REDUCED ORBITAL CHARGES AND SPIN POPULATIONS
----------------------------------------------------
CHARGE
  0 C s       :     2.867114  s :     2.867114
      pz      :     1.078704  p :     3.196915
      px      :     1.068784
      py      :     1.049427
      dz2     :     0.027364  d :     0.113961
      dxz     :     0.017146
      dyz     :     0.015494
      dx2y2   :     0.029201
      dxy     :     0.024757
  1 C s       :     3.046922  s :     3.046922
      pz      :     1.080280  p :     3.091005
      px      :     1.040758
      py      :     0.969967
      dz2     :     0.018600  d :     0.062777
      dxz     :     0.015799
      dyz     :     0.007331
      dx2y2   :     0.012404
      dxy     :     0.008643
  2 C s       :     2.953686  s :     2.953686
      pz      :     1.110915  p :     3.282947
      px      :     1.064618
      py      :     1.107414
      dz2     :     0.007154  d :     0.075220
      dxz     :     0.021018
      dyz     :     0.016985
      dx2y2   :     0.019864
      dxy     :     0.010199
  3 C s       :     2.960215  s :     2.960215
      pz      :     1.114879  p :     3.268722
      px      :     1.108246
      py      :     1.045597
      dz2     :     0.013369  d :     0.074314
      dxz     :     0.017774
      dyz     :     0.009890
      dx2y2   :     0.012809
      dxy     :     0.020472
  4 H s       :     0.887027  s :     0.887027
  5 H s       :     0.896966  s :     0.896966
  6 H s       :     0.894217  s :     0.894217
  7 H s       :     0.887616  s :     0.887616
  8 H s       :     0.893511  s :     0.893511
  9 H s       :     0.886544  s :     0.886544
 10 H s       :     0.886920  s :     0.886920
 11 H s       :     0.886926  s :     0.886926
 12 H s       :     0.886476  s :     0.886476

SPIN
  0 C s       :    -0.002936  s :    -0.002936
      pz      :    -0.004687  p :    -0.009009
      px      :    -0.007467
      py      :     0.003145
      dz2     :     0.002148  d :     0.012431
      dxz     :     0.000711
      dyz     :     0.000443
      dx2y2   :     0.008269
      dxy     :     0.000860
  1 C s       :     0.101294  s :     0.101294
      pz      :     0.027749  p :     0.853983
      px      :     0.139051
      py      :     0.687184
      dz2     :    -0.000869  d :    -0.003761
      dxz     :    -0.000615
      dyz     :    -0.000688
      dx2y2   :    -0.000618
      dxy     :    -0.000971
  2 C s       :     0.001903  s :     0.001903
      pz      :     0.000653  p :     0.006322
      px      :     0.003890
      py      :     0.001779
      dz2     :    -0.000007  d :    -0.000381
      dxz     :    -0.000132
      dyz     :    -0.000065
      dx2y2   :    -0.000036
      dxy     :    -0.000140
  3 C s       :     0.015074  s :     0.015074
      pz      :     0.002593  p :     0.032981
      px      :     0.000923
      py      :     0.029465
      dz2     :    -0.000012  d :     0.000418
      dxz     :     0.000003
      dyz     :    -0.000053
      dx2y2   :    -0.000007
      dxy     :     0.000487
  4 H s       :     0.008894  s :     0.008894
  5 H s       :    -0.013961  s :    -0.013961
  6 H s       :    -0.009927  s :    -0.009927
  7 H s       :     0.000012  s :     0.000012
  8 H s       :    -0.000627  s :    -0.000627
  9 H s       :    -0.000682  s :    -0.000682
 10 H s       :     0.001038  s :     0.001038
 11 H s       :     0.000242  s :     0.000242
 12 H s       :     0.006693  s :     0.006693


                      *****************************
                      * MAYER POPULATION ANALYSIS *
                      *****************************

  NA   - Mulliken gross atomic population
  ZA   - Total nuclear charge
  QA   - Mulliken gross atomic charge
  VA   - Mayer's total valence
  BVA  - Mayer's bonded valence
  FA   - Mayer's free valence

  ATOM       NA         ZA         QA         VA         BVA        FA
  0 C      6.1238     6.0000    -0.1238     4.2151     4.2123     0.0028
  1 C      6.1762     6.0000    -0.1762     3.9161     3.0534     0.8627
  2 C      6.2488     6.0000    -0.2488     3.9436     3.9435     0.0001
  3 C      6.2574     6.0000    -0.2574     3.9337     3.9319     0.0018
  4 H      0.9220     1.0000     0.0780     0.9377     0.9376     0.0001
  5 H      0.9159     1.0000     0.0841     0.9467     0.9454     0.0014
  6 H      0.9097     1.0000     0.0903     0.9530     0.9520     0.0010
  7 H      0.9064     1.0000     0.0936     0.9647     0.9647     0.0000
  8 H      0.9143     1.0000     0.0857     0.9634     0.9634     0.0000
  9 H      0.9109     1.0000     0.0891     0.9533     0.9533     0.0000
 10 H      0.9043     1.0000     0.0957     0.9663     0.9663     0.0000
 11 H      0.9090     1.0000     0.0910     0.9553     0.9553     0.0000
 12 H      0.9012     1.0000     0.0988     0.9633     0.9632     0.0002

  Mayer bond orders larger than 0.100000
B(  0-C ,  1-C ) :   1.1225 B(  0-C ,  2-C ) :   1.0842 B(  0-C ,  3-C ) :   1.0553 
B(  0-C ,  4-H ) :   0.9282 B(  1-C ,  5-H ) :   0.9459 B(  1-C ,  6-H ) :   0.9397 
B(  2-C ,  7-H ) :   0.9615 B(  2-C ,  8-H ) :   0.9610 B(  2-C ,  9-H ) :   0.9596 
B(  3-C , 10-H ) :   0.9603 B(  3-C , 11-H ) :   0.9576 B(  3-C , 12-H ) :   0.9553 


-------
TIMINGS
-------

Total SCF time: 0 days 0 hours 11 min 22 sec 

Total time                  ....     682.891 sec
Sum of individual times     ....     559.331 sec  ( 81.9%)

Fock matrix formation       ....     461.031 sec  ( 67.5%)
  XC integration            ....     231.888 sec  ( 50.3% of F)
    Basis function eval.    ....       0.798 sec  (  0.3% of XC)
    Density eval.           ....       0.562 sec  (  0.2% of XC)
    XC-Functional eval.     ....       0.346 sec  (  0.1% of XC)
    XC-Potential eval.      ....       0.847 sec  (  0.4% of XC)
Diagonalization             ....      18.388 sec  (  2.7%)
Density matrix formation    ....      40.324 sec  (  5.9%)
Population analysis         ....      18.517 sec  (  2.7%)
Initial guess               ....       0.196 sec  (  0.0%)
Orbital Transformation      ....       0.000 sec  (  0.0%)
Orbital Orthonormalization  ....       0.000 sec  (  0.0%)
DIIS solution               ....      13.835 sec  (  2.0%)
Grid generation             ....       7.040 sec  (  1.0%)


-------------------------------------------------------------------------------
                          DFT DISPERSION CORRECTION                            
                                                                               
                              DFTD3 V3.1  Rev 1                                
                          USING Becke-Johnson damping                          
-------------------------------------------------------------------------------
The B3LYP functional is recognized
Active option DFTDOPT                   ...         4   

molecular C6(AA) [au] = 1132.467511 


            DFT-D V3
 parameters
 s6 scaling factor         :     1.0000 
 a1 scaling factor         :     0.3981 
 s8 scaling factor         :     1.9889 
 a2 scaling factor         :     4.4211 
 ad hoc parameters k1-k3   :    16.0000     1.3333    -4.0000 

 Edisp/kcal,au: -9.146265880670  -0.014575500902 
 E6   /kcal   :  -4.535052079 
 E8   /kcal   :  -4.611213802 
 % E8         :  50.416354190 

-------------------------   ----------------
Dispersion correction           -0.014575501
-------------------------   ----------------


-------------------------   --------------------
FINAL SINGLE POINT ENERGY      -157.516683775690
-------------------------   --------------------

------------------------------------------------------------------------------
                         ORCA SCF GRADIENT CALCULATION
------------------------------------------------------------------------------

Gradient of the Kohn-Sham DFT energy:
Kohn-Sham wavefunction type      ... UKS
Hartree-Fock exchange scaling    ...    0.200
Number of operators              ...    2
Number of atoms                  ...   13
Basis set dimensions             ...   74
Integral neglect threshold       ... 1.0e-12
Integral primitive cutoff        ... 1.0e-14

Nuclear repulsion gradient       ... done
One Electron Gradient            ... done
Pre-screening matrix             ... done
Starting the two electron gradient:
Two electron gradient done
Exchange-correlation gradient    ... done
Dispersion correction            ... done

------------------
CARTESIAN GRADIENT
------------------

   1   C   :   -0.005685119   -0.022615793   -0.015337539
   2   C   :    0.028780650    0.033555553   -0.011368358
   3   C   :   -0.044161420    0.004165947    0.001873855
   4   C   :    0.013490267    0.029084244   -0.014013839
   5   H   :   -0.000585526    0.002006073    0.007445535
   6   H   :   -0.004199331   -0.017258565    0.003994075
   7   H   :   -0.006660223   -0.009660107    0.008367489
   8   H   :    0.000769381   -0.003852204    0.003026187
   9   H   :    0.001692054   -0.011215918    0.000370763
  10   H   :    0.003986484   -0.000234477    0.007335578
  11   H   :    0.002226531    0.000571837    0.002409479
  12   H   :    0.000506288   -0.000018084    0.009887200
  13   H   :    0.009839964   -0.004528504   -0.003990427

Difference to translation invariance:
           :   -0.0000000000   -0.0000000000   -0.0000000000

Norm of the cartesian gradient     ...    0.0843942164
RMS gradient                       ...    0.0135138901
MAX gradient                       ...    0.0441614203

-------
TIMINGS
-------

Total SCF gradient time            ...        4.741 sec

One electron gradient       ....       0.026 sec  (  0.5%)
Prescreening matrices       ....       0.025 sec  (  0.5%)
Two electron gradient       ....       1.301 sec  ( 27.4%)
XC gradient                 ....       2.427 sec  ( 51.2%)
------------------------------------------------------------------------------
                         ORCA GEOMETRY RELAXATION STEP
------------------------------------------------------------------------------

Reading the OPT-File                    .... done
Getting information on internals        .... done
Copying old internal coords+grads       .... done
Making the new internal coordinates     .... (new redundants).... done
Validating the new internal coordinates .... (new redundants).... done
Calculating the B-matrix                .... done
Calculating the G,G- and P matrices     .... done
Transforming gradient to internals      .... done
Projecting the internal gradient        .... done
Number of atoms                         ....  13
Number of internal coordinates          ....  57
Current Energy                          ....  -157.516683776 Eh
Current gradient norm                   ....     0.084394216 Eh/bohr
Maximum allowed component of the step   ....  0.300
Current trust radius                    ....  0.300
Evaluating the initial hessian          ....  (Almloef) done
Projecting the Hessian                  .... done
Forming the augmented Hessian           .... done
Diagonalizing the augmented Hessian     .... done
Last element of RFO vector              ....  0.946025201
Lowest eigenvalues of augmented Hessian:
 -0.020581346  0.012643306  0.012872783  0.014039442  0.068690101
Length of the computed step             ....  0.342583971
Warning: the length of the step is outside the trust region - taking restricted step instead
The input lambda is                     ....    -0.020581
   iter:   1  x=   -0.032484  g=    2.298893 f(x)=     0.027364
   iter:   2  x=   -0.036311  g=    1.466394 f(x)=     0.005611
   iter:   3  x=   -0.036558  g=    1.303603 f(x)=     0.000322
   iter:   4  x=   -0.036559  g=    1.294152 f(x)=     0.000001
   iter:   5  x=   -0.036559  g=    1.294117 f(x)=     0.000000
   iter:   6  x=   -0.036559  g=    1.294117 f(x)=    -0.000000
The output lambda is                    ....    -0.036559 (6 iterations)
The final length of the internal step   ....  0.300000000
Converting the step to cartesian space:
 Initial RMS(Int)=    0.0397359707
Transforming coordinates:
 Iter   0:  RMS(Cart)=    0.0855766082 RMS(Int)=    0.8224855607
 Iter   1:  RMS(Cart)=    0.0034274222 RMS(Int)=    0.0023730900
 Iter   2:  RMS(Cart)=    0.0002101169 RMS(Int)=    0.0001567250
 Iter   3:  RMS(Cart)=    0.0000279922 RMS(Int)=    0.0000204486
 Iter   4:  RMS(Cart)=    0.0000022038 RMS(Int)=    0.0000018472
 Iter   5:  RMS(Cart)=    0.0000002771 RMS(Int)=    0.0000001921
 Iter   6:  RMS(Cart)=    0.0000000253 RMS(Int)=    0.0000000222
done
Storing new coordinates                 .... done

                                .--------------------.
          ----------------------|Geometry convergence|-------------------------
          Item                value                   Tolerance       Converged
          ---------------------------------------------------------------------
          RMS gradient        0.0100159723            0.0001000000      NO
          MAX gradient        0.0394792951            0.0003000000      NO
          RMS step            0.0397359707            0.0020000000      NO
          MAX step            0.1142942917            0.0040000000      NO
          ........................................................
          Max(Bonds)      0.0457      Max(Angles)    5.68
          Max(Dihed)        6.55      Max(Improp)    0.00
          ---------------------------------------------------------------------

The optimization has not yet converged - more geometry cycles are needed


    ---------------------------------------------------------------------------
                         Redundant Internal Coordinates
                            (Angstroem and degrees)

        Definition                    Value    dE/dq     Step     New-Value
    ----------------------------------------------------------------------------
     1. B(C   1,C   0)                1.5025 -0.006868  0.0081    1.5106   
     2. B(C   2,C   0)                1.4978 -0.039479  0.0457    1.5436   
     3. B(C   3,C   0)                1.5122 -0.032814  0.0399    1.5521   
     4. B(H   4,C   0)                1.1200  0.007656 -0.0113    1.1087   
     5. B(H   5,C   1)                1.1167  0.006173 -0.0090    1.1077   
     6. B(H   6,C   1)                1.0970 -0.005305  0.0072    1.1042   
     7. B(H   7,C   2)                1.0981 -0.004647  0.0064    1.1044   
     8. B(H   8,C   2)                1.1198  0.010433 -0.0154    1.1045   
     9. B(H   9,C   2)                1.1198  0.007840 -0.0115    1.1083   
    10. B(H  10,C   3)                1.1016 -0.003320  0.0046    1.1062   
    11. B(H  11,C   3)                1.1195  0.008695 -0.0128    1.1067   
    12. B(H  12,C   3)                1.1191  0.010946 -0.0161    1.1030   
    13. A(C   1,C   0,H   4)          105.98 -0.006071    0.04    106.02   
    14. A(C   2,C   0,H   4)          108.44  0.005079   -0.54    107.90   
    15. A(C   1,C   0,C   2)          113.67  0.007195   -1.10    112.57   
    16. A(C   1,C   0,C   3)          112.96  0.014092   -2.53    110.44   
    17. A(C   2,C   0,C   3)          108.47 -0.023647    4.61    113.08   
    18. A(C   3,C   0,H   4)          107.01  0.003853   -0.60    106.41   
    19. A(H   5,C   1,H   6)          108.80  0.003784    2.64    111.44   
    20. A(C   0,C   1,H   6)          114.51 -0.006877    2.52    117.02   
    21. A(C   0,C   1,H   5)          106.86 -0.025381    5.68    112.55   
    22. A(H   7,C   2,H   9)          106.57  0.000778   -0.37    106.20   
    23. A(C   0,C   2,H   9)          110.91 -0.003504    0.70    111.61   
    24. A(H   7,C   2,H   8)          107.49  0.001256   -0.49    106.99   
    25. A(C   0,C   2,H   8)          112.14 -0.004136    0.77    112.90   
    26. A(H   8,C   2,H   9)          104.43  0.000920    0.42    104.85   
    27. A(C   0,C   2,H   7)          114.65  0.004669   -0.98    113.68   
    28. A(H  11,C   3,H  12)          106.97  0.003268   -0.29    106.68   
    29. A(H  10,C   3,H  12)          107.13  0.001528   -0.26    106.87   
    30. A(C   0,C   3,H  12)          110.61 -0.004654    0.88    111.49   
    31. A(H  10,C   3,H  11)          107.73  0.002711   -0.71    107.02   
    32. A(C   0,C   3,H  11)          110.71 -0.004544    0.75    111.45   
    33. A(C   0,C   3,H  10)          113.41  0.002134   -0.44    112.97   
    34. D(H   6,C   1,C   0,C   3)    -61.45  0.016747   -6.55    -68.00   
    35. D(H   6,C   1,C   0,H   4)   -178.31  0.008298   -4.50   -182.81   
    36. D(H   6,C   1,C   0,C   2)     62.70  0.001945   -3.24     59.46   
    37. D(H   5,C   1,C   0,H   4)    -57.76 -0.009174    4.42    -53.34   
    38. D(H   5,C   1,C   0,C   2)   -176.75 -0.015527    5.68   -171.07   
    39. D(H   5,C   1,C   0,C   3)     59.10 -0.000726    2.37     61.47   
    40. D(H   7,C   2,C   0,C   1)      0.85 -0.002017    0.30      1.15   
    41. D(H   9,C   2,C   0,C   1)    121.60 -0.000313   -0.35    121.25   
    42. D(H   8,C   2,C   0,H   4)    120.35 -0.004183    2.07    122.42   
    43. D(H   8,C   2,C   0,C   1)   -122.07 -0.004013    1.10   -120.97   
    44. D(H   7,C   2,C   0,H   4)   -116.72 -0.002188    1.27   -115.45   
    45. D(H   7,C   2,C   0,C   3)    127.40  0.003148   -0.19    127.21   
    46. D(H   9,C   2,C   0,C   3)   -111.85  0.004852   -0.84   -112.70   
    47. D(H   9,C   2,C   0,H   4)      4.02 -0.000484    0.62      4.64   
    48. D(H   8,C   2,C   0,C   3)      4.47  0.001153    0.61      5.08   
    49. D(H  12,C   3,C   0,H   4)   -105.73  0.001873   -0.06   -105.80   
    50. D(H  12,C   3,C   0,C   1)    138.02 -0.000889    1.65    139.66   
    51. D(H  11,C   3,C   0,H   4)     12.66  0.000114    0.61     13.27   
    52. D(H  11,C   3,C   0,C   2)    129.46 -0.003992    2.02    131.48   
    53. D(H  11,C   3,C   0,C   1)   -103.58 -0.002648    2.32   -101.27   
    54. D(H  10,C   3,C   0,H   4)    133.89  0.001793   -0.07    133.82   
    55. D(H  12,C   3,C   0,C   2)     11.06 -0.002233    1.35     12.41   
    56. D(H  10,C   3,C   0,C   2)   -109.31 -0.002313    1.34   -107.97   
    57. D(H  10,C   3,C   0,C   1)     17.64 -0.000969    1.64     19.28   
    ----------------------------------------------------------------------------

Time needed for optimization step       :     7.16 sec

         *************************************************************
         *                GEOMETRY OPTIMIZATION CYCLE   2            *
         *************************************************************
---------------------------------
CARTESIAN COORDINATES (ANGSTROEM)
---------------------------------
  C      0.031997    0.097639    0.339505
  C     -0.906948    1.082166   -0.316926
  C      1.453637    0.143152   -0.260050
  C     -0.585398   -1.326369    0.333850
  H      0.101108    0.404052    1.402786
  H     -1.873661    1.160852    0.218044
  H     -1.065452    0.969552   -1.403920
  H      1.574393    0.896719   -1.058370
  H      1.773987   -0.826642   -0.680432
  H      2.213742    0.383654    0.509805
  H     -1.393665   -1.443618   -0.412278
  H     -1.015109   -1.585083    1.320351
  H      0.172976   -2.094695    0.107695

----------------------------
CARTESIAN COORDINATES (A.U.)
----------------------------
  NO LB      ZA    FRAG     MASS         X           Y           Z
   0 C     6.0000    0    12.011    0.060466    0.184511    0.641572
   1 C     6.0000    0    12.011   -1.713883    2.044997   -0.598904
   2 C     6.0000    0    12.011    2.746976    0.270518   -0.491423
   3 C     6.0000    0    12.011   -1.106243   -2.506475    0.630886
   4 H     1.0000    0     1.008    0.191066    0.763547    2.650881
   5 H     1.0000    0     1.008   -3.540706    2.193692    0.412044
   6 H     1.0000    0     1.008   -2.013412    1.832188   -2.653025
   7 H     1.0000    0     1.008    2.975172    1.694554   -2.000030
   8 H     1.0000    0     1.008    3.352350   -1.562127   -1.285829
   9 H     1.0000    0     1.008    4.183365    0.725002    0.963391
  10 H     1.0000    0     1.008   -2.633645   -2.728043   -0.779092
  11 H     1.0000    0     1.008   -1.918278   -2.995372    2.495101
  12 H     1.0000    0     1.008    0.326877   -3.958399    0.203514

--------------------------------
INTERNAL COORDINATES (ANGSTROEM)
--------------------------------
 C      0   0   0     0.000000000000     0.00000000     0.00000000
 C      1   0   0     1.510567024023     0.00000000     0.00000000
 C      1   2   0     1.543566638963   112.61116690     0.00000000
 C      1   2   3     1.552098529344   110.43436992   232.53132991
 H      1   2   3     1.108706730601   105.98435016   117.72197501
 H      2   1   3     1.107663654669   112.26597470   189.06442223
 H      2   1   3     1.104246956709   116.77732272    59.33236087
 H      3   1   2     1.104427747479   113.67732646     1.14882533
 H      3   1   2     1.104465951473   112.89787759   239.03168987
 H      3   1   2     1.108276431649   111.60794123   121.24292983
 H      4   1   2     1.106232195203   112.97551145    19.25785539
 H      4   1   2     1.106691702296   111.44965091   258.71302295
 H      4   1   2     1.102996319673   111.49024392   139.63736444

---------------------------
INTERNAL COORDINATES (A.U.)
---------------------------
 C      0   0   0     0.000000000000     0.00000000     0.00000000
 C      1   0   0     2.854557982336     0.00000000     0.00000000
 C      1   2   0     2.916918217098   112.61116690     0.00000000
 C      1   2   3     2.933041153322   110.43436992   232.53132991
 H      1   2   3     2.095152083671   105.98435016   117.72197501
 H      2   1   3     2.093180955823   112.26597470   189.06442223
 H      2   1   3     2.086724332396   116.77732272    59.33236087
 H      3   1   2     2.087065977439   113.67732646     1.14882533
 H      3   1   2     2.087138172525   112.89787759   239.03168987
 H      3   1   2     2.094338936496   111.60794123   121.24292983
 H      4   1   2     2.090475889460   112.97551145    19.25785539
 H      4   1   2     2.091344232023   111.44965091   258.71302295
 H      4   1   2     2.084360970905   111.49024392   139.63736444


Diagonalization of the overlap matrix:
Smallest eigenvalue                        ... 2.163e-03
Time for diagonalization                   ...    0.001 sec
Threshold for overlap eigenvalues          ... 1.000e-08
Number of eigenvalues below threshold      ... 0
Time for construction of square roots      ...    4.435 sec
Total time needed                          ...    4.436 sec

-------------------
DFT GRID GENERATION
-------------------

General Integration Accuracy     IntAcc      ...  4.340
Radial Grid Type                 RadialGrid  ... Gauss-Chebyshev
Angular Grid (max. acc.)         AngularGrid ... Lebedev-110
Angular grid pruning method      GridPruning ... 3 (G Style)
Weight generation scheme         WeightScheme... Becke
Basis function cutoff            BFCut       ...    1.0000e-12
Integration weight cutoff        WCut        ...    1.0000e-14
Grids for H and He will be reduced by one unit

# of grid points (after initial pruning)     ...  13770 (   0.0 sec)
# of grid points (after weights+screening)   ...  12898 (   0.0 sec)
nearest neighbour list constructed           ...    0.0 sec
Grid point re-assignment to atoms done       ...    0.0 sec
Grid point division into batches done        ...    0.0 sec
Reduced shell lists constructed in    0.1 sec

Total number of grid points                  ...    12898
Total number of batches                      ...      210
Average number of points per batch           ...       61
Average number of grid points per atom       ...      992
Average number of shells per batch           ...    37.18 (88.54%)
Average number of basis functions per batch  ...    66.35 (89.66%)
Average number of large shells per batch     ...    32.47 (87.33%)
Average number of large basis fcns per batch ...    57.42 (86.54%)
Maximum spatial batch extension              ...  19.85, 21.64, 20.02 au
Average spatial batch extension              ...   3.94,  4.18,  3.80 au

Time for grid setup =    4.570 sec

--------------
SCF ITERATIONS
--------------
ITER       Energy         Delta-E        Max-DP      RMS-DP      [F,P]     Damp
               ***  Starting incremental Fock matrix formation  ***
  0   -157.5099422700   0.000000000000 0.00400626  0.00021351  0.0183116 0.7000
  1   -157.5109116734  -0.000969403373 0.00377752  0.00019475  0.0145031 0.7000
                               ***Turning on DIIS***
  2   -157.5116635713  -0.000751897916 0.00992141  0.00050750  0.0108947 0.0000
  3   -157.5135601017  -0.001896530336 0.00249050  0.00008773  0.0015066 0.0000
  4   -157.5135959748  -0.000035873133 0.00234096  0.00007138  0.0008248 0.0000
  5   -157.5136050496  -0.000009074849 0.00040481  0.00001652  0.0003877 0.0000
  6   -157.5136061116  -0.000001061961 0.00031137  0.00000847  0.0001773 0.0000
  7   -157.5136063206  -0.000000208977 0.00004125  0.00000207  0.0000328 0.0000
  8   -157.5136063330  -0.000000012426 0.00001693  0.00000081  0.0000209 0.0000
  9   -157.5136063360  -0.000000003035 0.00000435  0.00000024  0.0000045 0.0000
 10   -157.5136063363  -0.000000000253 0.00000151  0.00000007  0.0000011 0.0000
 11   -157.5136063363  -0.000000000030 0.00000072  0.00000003  0.0000007 0.0000
 12   -157.5136063363  -0.000000000008 0.00000042  0.00000002  0.0000002 0.0000
 13   -157.5136063363  -0.000000000008 0.00000022  0.00000001  0.0000002 0.0000
 14   -157.5136063363   0.000000000007 0.00000007  0.00000000  0.0000000 0.0000
                 **** Energy Check signals convergence ****

 Fermi smearing  (ALPHA): E(HOMO(Eh)) = -0.319555 MUE = -0.080712 gap=   7.529 eV
 Fermi smearing   (BETA): E(HOMO(Eh)) = -0.316695 MUE = -0.185589 gap=   7.106 eV

N_FOD(alpha) =  0.000000
 N_FOD(beta) =  0.000000
       N_FOD =  0.000000

               *****************************************************
               *                     SUCCESS                       *
               *           SCF CONVERGED AFTER  15 CYCLES          *
               *****************************************************

Setting up the final grid:

General Integration Accuracy     IntAcc      ...  4.670
Radial Grid Type                 RadialGrid  ... Gauss-Chebyshev
Angular Grid (max. acc.)         AngularGrid ... Lebedev-302
Angular grid pruning method      GridPruning ... 3 (G Style)
Weight generation scheme         WeightScheme... Becke
Basis function cutoff            BFCut       ...    1.0000e-12
Integration weight cutoff        WCut        ...    1.0000e-14
Grids for H and He will be reduced by one unit

# of grid points (after initial pruning)     ...  55394 (   0.0 sec)
# of grid points (after weights+screening)   ...  51246 (   0.1 sec)
nearest neighbour list constructed           ...    0.0 sec
Grid point re-assignment to atoms done       ...    0.0 sec
Grid point division into batches done        ...    0.1 sec
Reduced shell lists constructed in    0.3 sec

Total number of grid points                  ...    51246
Total number of batches                      ...      809
Average number of points per batch           ...       63
Average number of grid points per atom       ...     3942
Average number of shells per batch           ...    34.80 (82.85%)
Average number of basis functions per batch  ...    61.84 (83.57%)
Average number of large shells per batch     ...    29.75 (85.49%)
Average number of large basis fcns per batch ...    52.28 (84.54%)
Maximum spatial batch extension              ...  18.49, 21.32, 20.51 au
Average spatial batch extension              ...   2.67,  2.70,  2.65 au

Final grid set up in    1.6 sec
Final integration                            ... done (  12.9 sec)
Change in XC energy                          ...    -0.000408359
Integrated number of electrons               ...    33.000003735
Previous integrated no of electrons          ...    32.999096448
Total Energy       :         -157.51401469 Eh           -4286.17424 eV
  Last Energy change         ...   -9.7771e-12  Tolerance :   1.0000e-09
  Last MAX-Density change    ...    3.2034e-08  Tolerance :   1.0000e-08
             **** THE GBW FILE WAS UPDATED (orca9.gbw) ****
             **** DENSITY FILE WAS UPDATED (orca9.scfp) ****
             **** ENERGY FILE WAS UPDATED (orca9.en.tmp) ****
             **** THE GBW FILE WAS UPDATED (orca9.gbw) ****
             **** DENSITY FILE WAS UPDATED (orca9.scfp) ****
Total SCF time: 0 days 0 hours 12 min 57 sec 


-------------------------------------------------------------------------------
                          DFT DISPERSION CORRECTION                            
                                                                               
                              DFTD3 V3.1  Rev 1                                
                          USING Becke-Johnson damping                          
-------------------------------------------------------------------------------
-------------------------   ----------------
Dispersion correction           -0.014280439
-------------------------   ----------------


-------------------------   --------------------
FINAL SINGLE POINT ENERGY      -157.528295133756
-------------------------   --------------------

------------------------------------------------------------------------------
                         ORCA SCF GRADIENT CALCULATION
------------------------------------------------------------------------------

Gradient of the Kohn-Sham DFT energy:
Kohn-Sham wavefunction type      ... UKS
Hartree-Fock exchange scaling    ...    0.200
Number of operators              ...    2
Number of atoms                  ...   13
Basis set dimensions             ...   74
Integral neglect threshold       ... 1.0e-12
Integral primitive cutoff        ... 1.0e-14

Nuclear repulsion gradient       ... done
One Electron Gradient            ... done
Pre-screening matrix             ... done
Starting the two electron gradient:
Two electron gradient done
Exchange-correlation gradient    ... done
Dispersion correction            ... done

------------------
CARTESIAN GRADIENT
------------------

   1   C   :   -0.003054366   -0.011524208   -0.001307002
   2   C   :    0.015646713    0.022159580   -0.003359917
   3   C   :   -0.011446911    0.001239675   -0.000765853
   4   C   :    0.003864765    0.005928825   -0.002885016
   5   H   :   -0.001615911    0.000992898    0.001754264
   6   H   :   -0.003560446   -0.009337870    0.000758061
   7   H   :   -0.006476500   -0.006033399    0.000929314
   8   H   :    0.002919294   -0.000766521   -0.000077468
   9   H   :    0.002607200    0.000393155    0.001765350
  10   H   :    0.002285480   -0.000855658    0.000629780
  11   H   :   -0.001031730   -0.001118158    0.000951673
  12   H   :    0.001119417   -0.001316035    0.001937352
  13   H   :   -0.001257005    0.000237717   -0.000330539

Difference to translation invariance:
           :    0.0000000000   -0.0000000000   -0.0000000000

Norm of the cartesian gradient     ...    0.0361405546
RMS gradient                       ...    0.0057871203
MAX gradient                       ...    0.0221595798

-------
TIMINGS
-------

Total SCF gradient time            ...        3.859 sec

One electron gradient       ....       0.026 sec  (  0.7%)
Prescreening matrices       ....       0.026 sec  (  0.7%)
Two electron gradient       ....       1.330 sec  ( 34.5%)
XC gradient                 ....       2.354 sec  ( 61.0%)
------------------------------------------------------------------------------
                         ORCA GEOMETRY RELAXATION STEP
------------------------------------------------------------------------------

Reading the OPT-File                    .... done
Getting information on internals        .... done
Copying old internal coords+grads       .... done
Making the new internal coordinates     .... (new redundants).... done
Validating the new internal coordinates .... (new redundants).... done
Calculating the B-matrix                .... done
Calculating the G,G- and P matrices     .... done
Transforming gradient to internals      .... done
Projecting the internal gradient        .... done
Number of atoms                         ....  13
Number of internal coordinates          ....  57
Current Energy                          ....  -157.528295134 Eh
Current gradient norm                   ....     0.036140555 Eh/bohr
Maximum allowed component of the step   ....  0.300
Current trust radius                    ....  0.300
Updating the Hessian (BFGS)             .... done
Forming the augmented Hessian           .... done
Diagonalizing the augmented Hessian     .... done
Last element of RFO vector              ....  0.962157163
Lowest eigenvalues of augmented Hessian:
 -0.004664062  0.012643435  0.012963360  0.014025245  0.064770456
Length of the computed step             ....  0.283212697
The final length of the internal step   ....  0.283212697
Converting the step to cartesian space:
 Initial RMS(Int)=    0.0375124382
Transforming coordinates:
 Iter   0:  RMS(Cart)=    0.0436682468 RMS(Int)=    0.0376851518
 Iter   1:  RMS(Cart)=    0.0022885284 RMS(Int)=    0.0017841468
 Iter   2:  RMS(Cart)=    0.0001287794 RMS(Int)=    0.0001211234
 Iter   3:  RMS(Cart)=    0.0000150702 RMS(Int)=    0.0000109988
 Iter   4:  RMS(Cart)=    0.0000011682 RMS(Int)=    0.0000011043
 Iter   5:  RMS(Cart)=    0.0000001312 RMS(Int)=    0.0000000901
 Iter   6:  RMS(Cart)=    0.0000000115 RMS(Int)=    0.0000000110
done
Storing new coordinates                 .... done

                                .--------------------.
          ----------------------|Geometry convergence|-------------------------
          Item                value                   Tolerance       Converged
          ---------------------------------------------------------------------
          Energy change      -0.0116113581            0.0000050000      NO
          RMS gradient        0.0027558194            0.0001000000      NO
          MAX gradient        0.0113503774            0.0003000000      NO
          RMS step            0.0375124382            0.0020000000      NO
          MAX step            0.1023368163            0.0040000000      NO
          ........................................................
          Max(Bonds)      0.0108      Max(Angles)    4.75
          Max(Dihed)        5.86      Max(Improp)    0.00
          ---------------------------------------------------------------------

The optimization has not yet converged - more geometry cycles are needed


    ---------------------------------------------------------------------------
                         Redundant Internal Coordinates
                            (Angstroem and degrees)

        Definition                    Value    dE/dq     Step     New-Value
    ----------------------------------------------------------------------------
     1. B(C   1,C   0)                1.5106  0.001664 -0.0022    1.5083   
     2. B(C   2,C   0)                1.5436 -0.003952  0.0100    1.5535   
     3. B(C   3,C   0)                1.5521 -0.004495  0.0108    1.5629   
     4. B(H   4,C   0)                1.1087  0.001856 -0.0047    1.1040   
     5. B(H   5,C   1)                1.1077  0.002812 -0.0066    1.1011   
     6. B(H   6,C   1)                1.1042  0.000631 -0.0008    1.1035   
     7. B(H   7,C   2)                1.1044 -0.000146  0.0007    1.1052   
     8. B(H   8,C   2)                1.1045 -0.000263 -0.0004    1.1040   
     9. B(H   9,C   2)                1.1083  0.001819 -0.0047    1.1036   
    10. B(H  10,C   3)                1.1062  0.000229 -0.0002    1.1061   
    11. B(H  11,C   3)                1.1067  0.001600 -0.0043    1.1024   
    12. B(H  12,C   3)                1.1030 -0.000960  0.0010    1.1040   
    13. A(C   1,C   0,H   4)          105.98 -0.001118    0.65    106.64   
    14. A(C   2,C   0,H   4)          107.88  0.000462    0.06    107.94   
    15. A(C   1,C   0,C   2)          112.61  0.000440   -0.38    112.24   
    16. A(C   1,C   0,C   3)          110.43  0.001874   -0.89    109.54   
    17. A(C   2,C   0,C   3)          113.08 -0.001691    0.44    113.52   
    18. A(C   3,C   0,H   4)          106.37 -0.000008    0.15    106.52   
    19. A(H   5,C   1,H   6)          110.94  0.000836    3.47    114.41   
    20. A(C   0,C   1,H   6)          116.78 -0.000848    1.86    118.64   
    21. A(C   0,C   1,H   5)          112.27 -0.011350    4.75    117.01   
    22. A(H   7,C   2,H   9)          106.20 -0.001933    0.38    106.58   
    23. A(C   0,C   2,H   9)          111.61  0.000167    0.17    111.78   
    24. A(H   7,C   2,H   8)          106.99 -0.002076    0.09    107.08   
    25. A(C   0,C   2,H   8)          112.90  0.001601   -0.34    112.56   
    26. A(H   8,C   2,H   9)          104.83 -0.002536    1.20    106.03   
    27. A(C   0,C   2,H   7)          113.68  0.004018   -1.26    112.42   
    28. A(H  11,C   3,H  12)          106.67 -0.000782    0.42    107.09   
    29. A(H  10,C   3,H  12)          106.87 -0.001056    0.13    107.00   
    30. A(C   0,C   3,H  12)          111.49  0.000416   -0.01    111.48   
    31. A(H  10,C   3,H  11)          107.02 -0.000591   -0.00    107.02   
    32. A(C   0,C   3,H  11)          111.45 -0.000360    0.17    111.62   
    33. A(C   0,C   3,H  10)          112.98  0.002157   -0.65    112.32   
    34. D(H   6,C   1,C   0,C   3)    -68.14  0.005922   -5.42    -73.56   
    35. D(H   6,C   1,C   0,H   4)    177.05  0.005625   -5.56    171.49   
    36. D(H   6,C   1,C   0,C   2)     59.33  0.005521   -5.86     53.47   
    37. D(H   5,C   1,C   0,H   4)    -53.21 -0.005264    3.89    -49.32   
    38. D(H   5,C   1,C   0,C   2)   -170.94 -0.005368    3.59   -167.35   
    39. D(H   5,C   1,C   0,C   3)     61.60 -0.004967    4.03     65.63   
    40. D(H   7,C   2,C   0,C   1)      1.15 -0.000632    0.91      2.06   
    41. D(H   9,C   2,C   0,C   1)    121.24 -0.000168    0.64    121.88   
    42. D(H   8,C   2,C   0,H   4)    122.43 -0.001389    1.40    123.83   
    43. D(H   8,C   2,C   0,C   1)   -120.97 -0.002216    2.05   -118.92   
    44. D(H   7,C   2,C   0,H   4)   -115.45  0.000195    0.27   -115.18   
    45. D(H   7,C   2,C   0,C   3)    127.20  0.000894   -0.21    127.00   
    46. D(H   9,C   2,C   0,C   3)   -112.70  0.001358   -0.48   -113.18   
    47. D(H   9,C   2,C   0,H   4)      4.64  0.000659   -0.01      4.64   
    48. D(H   8,C   2,C   0,C   3)      5.09 -0.000690    0.93      6.01   
    49. D(H  12,C   3,C   0,H   4)   -105.80 -0.000319    2.42   -103.37   
    50. D(H  12,C   3,C   0,C   1)    139.64  0.000075    1.98    141.62   
    51. D(H  11,C   3,C   0,H   4)     13.28 -0.001271    3.06     16.34   
    52. D(H  11,C   3,C   0,C   2)    131.50 -0.001662    3.47    134.97   
[...]

             **** THE GBW FILE WAS UPDATED (orca9.gbw) ****
             **** DENSITY FILE WAS UPDATED (orca9.scfp) ****
             **** ENERGY FILE WAS UPDATED (orca9.en.tmp) ****
             **** THE GBW FILE WAS UPDATED (orca9.gbw) ****
             **** DENSITY FILE WAS UPDATED (orca9.scfp) ****
----------------
ORBITAL ENERGIES
----------------
                 SPIN UP ORBITALS
  NO   OCC          E(Eh)            E(eV) 
   0   1.0000     -10.187603      -277.2188 
   1   1.0000     -10.179741      -277.0048 
   2   1.0000     -10.169947      -276.7383 
   3   1.0000     -10.167516      -276.6722 
   4   1.0000      -0.793137       -21.5823 
   5   1.0000      -0.671048       -18.2602 
   6   1.0000      -0.661158       -17.9910 
   7   1.0000      -0.549739       -14.9592 
   8   1.0000      -0.461704       -12.5636 
   9   1.0000      -0.432215       -11.7612 
  10   1.0000      -0.421774       -11.4770 
  11   1.0000      -0.386629       -10.5207 
  12   1.0000      -0.377190       -10.2639 
  13   1.0000      -0.344713        -9.3801 
  14   1.0000      -0.339114        -9.2278 
  15   1.0000      -0.327707        -8.9174 
  16   1.0000      -0.201621        -5.4864 
  17   0.0000       0.059233         1.6118 
  18   0.0000       0.098533         2.6812 
  19   0.0000       0.106009         2.8846 
  20   0.0000       0.113107         3.0778 
  21   0.0000       0.122923         3.3449 
  22   0.0000       0.140258         3.8166 
  23   0.0000       0.145295         3.9537 
  24   0.0000       0.164436         4.4745 
  25   0.0000       0.175524         4.7763 
  26   0.0000       0.208888         5.6841 
  27   0.0000       0.245579         6.6825 
  28   0.0000       0.260305         7.0833 
  29   0.0000       0.398230        10.8364 
  30   0.0000       0.419133        11.4052 
  31   0.0000       0.426497        11.6056 
  32   0.0000       0.446496        12.1498 
  33   0.0000       0.475758        12.9460 
  34   0.0000       0.501473        13.6458 
  35   0.0000       0.573655        15.6100 
  36   0.0000       0.603660        16.4264 
  37   0.0000       0.642748        17.4901 
  38   0.0000       0.661447        17.9989 
  39   0.0000       0.664477        18.0813 
  40   0.0000       0.665369        18.1056 
  41   0.0000       0.694795        18.9063 
  42   0.0000       0.702006        19.1025 
  43   0.0000       0.705342        19.1933 
  44   0.0000       0.709638        19.3102 
  45   0.0000       0.721762        19.6401 
  46   0.0000       0.724973        19.7275 
  47   0.0000       0.737698        20.0738 
  48   0.0000       0.752125        20.4664 
  49   0.0000       0.755227        20.5508 
  50   0.0000       0.855233        23.2721 
  51   0.0000       0.936054        25.4713 
  52   0.0000       1.039260        28.2797 
  53   0.0000       1.089765        29.6540 
  54   0.0000       1.398516        38.0555 
  55   0.0000       1.523788        41.4644 
  56   0.0000       1.670884        45.4671 
  57   0.0000       1.742670        47.4205 
  58   0.0000       1.753946        47.7273 
  59   0.0000       1.816552        49.4309 
  60   0.0000       1.908035        51.9203 
  61   0.0000       1.935536        52.6686 
  62   0.0000       1.979536        53.8659 
  63   0.0000       2.017441        54.8974 
  64   0.0000       2.046822        55.6968 
  65   0.0000       2.076676        56.5092 
  66   0.0000       2.139272        58.2125 
  67   0.0000       2.146816        58.4178 
  68   0.0000       2.175965        59.2110 
  69   0.0000       2.423099        65.9359 
  70   0.0000       2.431605        66.1673 
  71   0.0000       2.498968        68.0004 
  72   0.0000       2.670475        72.6673 
  73   0.0000       2.681526        72.9680 

                 SPIN DOWN ORBITALS
  NO   OCC          E(Eh)            E(eV) 
   0   1.0000     -10.188523      -277.2438 
   1   1.0000     -10.168471      -276.6982 
   2   1.0000     -10.167323      -276.6669 
   3   1.0000     -10.165095      -276.6063 
   4   1.0000      -0.785767       -21.3818 
   5   1.0000      -0.669304       -18.2127 
   6   1.0000      -0.637294       -17.3416 
   7   1.0000      -0.540985       -14.7209 
   8   1.0000      -0.457100       -12.4383 
   9   1.0000      -0.429463       -11.6863 
  10   1.0000      -0.414990       -11.2925 
  11   1.0000      -0.383817       -10.4442 
  12   1.0000      -0.373781       -10.1711 
  13   1.0000      -0.337869        -9.1939 
  14   1.0000      -0.334594        -9.1048 
  15   1.0000      -0.325393        -8.8544 
  16   0.0000      -0.044762        -1.2180 
  17   0.0000       0.060801         1.6545 
  18   0.0000       0.099914         2.7188 
  19   0.0000       0.111939         3.0460 
  20   0.0000       0.116910         3.1813 
  21   0.0000       0.125418         3.4128 
  22   0.0000       0.141417         3.8481 
  23   0.0000       0.147386         4.0106 
  24   0.0000       0.165621         4.5068 
  25   0.0000       0.177297         4.8245 
  26   0.0000       0.212383         5.7792 
  27   0.0000       0.247289         6.7291 
  28   0.0000       0.268530         7.3071 
  29   0.0000       0.401031        10.9126 
  30   0.0000       0.423337        11.5196 
  31   0.0000       0.432929        11.7806 
  32   0.0000       0.450943        12.2708 
  33   0.0000       0.483484        13.1563 
  34   0.0000       0.547315        14.8932 
  35   0.0000       0.593673        16.1547 
  36   0.0000       0.613369        16.6906 
  37   0.0000       0.648019        17.6335 
  38   0.0000       0.665848        18.1187 
  39   0.0000       0.666058        18.1244 
  40   0.0000       0.673502        18.3269 
  41   0.0000       0.697618        18.9832 
  42   0.0000       0.703692        19.1484 
  43   0.0000       0.709468        19.3056 
  44   0.0000       0.713796        19.4234 
  45   0.0000       0.723776        19.6950 
  46   0.0000       0.729754        19.8576 
  47   0.0000       0.743215        20.2239 
  48   0.0000       0.754733        20.5373 
  49   0.0000       0.762600        20.7514 
  50   0.0000       0.861124        23.4324 
  51   0.0000       0.942053        25.6346 
  52   0.0000       1.041158        28.3314 
  53   0.0000       1.093393        29.7527 
  54   0.0000       1.409227        38.3470 
  55   0.0000       1.528724        41.5987 
  56   0.0000       1.722508        46.8718 
  57   0.0000       1.746204        47.5166 
  58   0.0000       1.777807        48.3766 
  59   0.0000       1.830948        49.8226 
  60   0.0000       1.922535        52.3148 
  61   0.0000       1.939722        52.7825 
  62   0.0000       1.988122        54.0996 
  63   0.0000       2.047730        55.7216 
  64   0.0000       2.077241        56.5246 
  65   0.0000       2.090304        56.8801 
  66   0.0000       2.142896        58.3112 
  67   0.0000       2.148059        58.4517 
  68   0.0000       2.182922        59.4003 
  69   0.0000       2.427145        66.0460 
  70   0.0000       2.443391        66.4881 
  71   0.0000       2.503663        68.1281 
  72   0.0000       2.678225        72.8782 
  73   0.0000       2.685333        73.0716 

                    ********************************
                    * MULLIKEN POPULATION ANALYSIS *
                    ********************************

------------------------------------------
FOD BASED MULLIKEN REDUCED ORBITAL CHARGES
------------------------------------------
  0 C s       :    -0.000000  s :    -0.000000
      pz      :     0.000000  p :     0.000000
      px      :     0.000000
      py      :     0.000000
      dz2     :     0.000000  d :     0.000000
      dxz     :     0.000000
      dyz     :     0.000000
      dx2y2   :     0.000000
      dxy     :     0.000000
  1 C s       :    -0.000000  s :    -0.000000
      pz      :     0.000000  p :     0.000000
      px      :     0.000000
      py      :     0.000000
      dz2     :     0.000000  d :     0.000000
      dxz     :     0.000000
      dyz     :     0.000000
      dx2y2   :     0.000000
      dxy     :     0.000000
  2 C s       :    -0.000000  s :    -0.000000
      pz      :     0.000000  p :     0.000000
      px      :     0.000000
      py      :     0.000000
      dz2     :     0.000000  d :     0.000000
      dxz     :     0.000000
      dyz     :     0.000000
      dx2y2   :     0.000000
      dxy     :     0.000000
  3 C s       :    -0.000000  s :    -0.000000
      pz      :     0.000000  p :     0.000000
      px      :     0.000000
      py      :     0.000000
      dz2     :     0.000000  d :     0.000000
      dxz     :     0.000000
      dyz     :     0.000000
      dx2y2   :     0.000000
      dxy     :     0.000000
  4 H s       :     0.000000  s :     0.000000
  5 H s       :     0.000000  s :     0.000000
  6 H s       :     0.000000  s :     0.000000
  7 H s       :     0.000000  s :     0.000000
  8 H s       :     0.000000  s :     0.000000
  9 H s       :     0.000000  s :     0.000000
 10 H s       :     0.000000  s :     0.000000
 11 H s       :     0.000000  s :     0.000000
 12 H s       :     0.000000  s :     0.000000


                     *******************************
                     * LOEWDIN POPULATION ANALYSIS *
                     *******************************

-------------------------------------------
LOEWDIN ATOMIC CHARGES AND SPIN POPULATIONS
-------------------------------------------
   0 C :   -0.159890   -0.012903
   1 C :   -0.221222    0.978569
   2 C :   -0.309076    0.007599
   3 C :   -0.307413    0.049437
   4 H :    0.113537    0.020442
   5 H :    0.111446   -0.025818
   6 H :    0.113190   -0.026203
   7 H :    0.111749    0.000540
   8 H :    0.109365   -0.000182
   9 H :    0.109904   -0.000006
  10 H :    0.109351    0.000187
  11 H :    0.109997    0.000036
  12 H :    0.109063    0.008304

----------------------------------------------------
LOEWDIN REDUCED ORBITAL CHARGES AND SPIN POPULATIONS
----------------------------------------------------
CHARGE
  0 C s       :     2.876413  s :     2.876413
      pz      :     1.071145  p :     3.172161
      px      :     1.053280
      py      :     1.047735
      dz2     :     0.022779  d :     0.111316
      dxz     :     0.020357
      dyz     :     0.017907
      dx2y2   :     0.027584
      dxy     :     0.022689
  1 C s       :     3.017449  s :     3.017449
      pz      :     1.083307  p :     3.146944
      px      :     1.050744
      py      :     1.012894
      dz2     :     0.019094  d :     0.056829
      dxz     :     0.014478
      dyz     :     0.006196
      dx2y2   :     0.009024
      dxy     :     0.008037
  2 C s       :     2.956405  s :     2.956405
      pz      :     1.103364  p :     3.279927
      px      :     1.066182
      py      :     1.110382
      dz2     :     0.017828  d :     0.072744
      dxz     :     0.014223
      dyz     :     0.009888
      dx2y2   :     0.014457
      dxy     :     0.016347
  3 C s       :     2.963695  s :     2.963695
      pz      :     1.112514  p :     3.271294
      px      :     1.104600
      py      :     1.054180
      dz2     :     0.010677  d :     0.072423
      dxz     :     0.015724
      dyz     :     0.016502
      dx2y2   :     0.015650
      dxy     :     0.013870
  4 H s       :     0.886463  s :     0.886463
  5 H s       :     0.888554  s :     0.888554
  6 H s       :     0.886810  s :     0.886810
  7 H s       :     0.888251  s :     0.888251
  8 H s       :     0.890635  s :     0.890635
  9 H s       :     0.890096  s :     0.890096
 10 H s       :     0.890649  s :     0.890649
 11 H s       :     0.890003  s :     0.890003
 12 H s       :     0.890937  s :     0.890937

SPIN
  0 C s       :    -0.005152  s :    -0.005152
      pz      :    -0.007221  p :    -0.024329
      px      :    -0.009951
      py      :    -0.007157
      dz2     :     0.002918  d :     0.016578
      dxz     :     0.001781
      dyz     :     0.001449
      dx2y2   :     0.009867
      dxy     :     0.000564
  1 C s       :     0.039993  s :     0.039993
      pz      :     0.067065  p :     0.942443
      px      :     0.208262
      py      :     0.667116
      dz2     :    -0.001139  d :    -0.003867
      dxz     :    -0.000619
      dyz     :    -0.000379
      dx2y2   :    -0.000335
      dxy     :    -0.001395
  2 C s       :     0.001509  s :     0.001509
      pz      :     0.001777  p :     0.006263
      px      :     0.002332
      py      :     0.002155
      dz2     :     0.000090  d :    -0.000174
      dxz     :    -0.000065
      dyz     :     0.000061
      dx2y2   :    -0.000052
      dxy     :    -0.000209
  3 C s       :     0.016637  s :     0.016637
      pz      :     0.002727  p :     0.032351
      px      :     0.002411
      py      :     0.027213
      dz2     :     0.000009  d :     0.000449
      dxz     :     0.000350
      dyz     :    -0.000085
      dx2y2   :    -0.000110
      dxy     :     0.000286
  4 H s       :     0.020442  s :     0.020442
  5 H s       :    -0.025818  s :    -0.025818
  6 H s       :    -0.026203  s :    -0.026203
  7 H s       :     0.000540  s :     0.000540
  8 H s       :    -0.000182  s :    -0.000182
  9 H s       :    -0.000006  s :    -0.000006
 10 H s       :     0.000187  s :     0.000187
 11 H s       :     0.000036  s :     0.000036
 12 H s       :     0.008304  s :     0.008304


                      *****************************
                      * MAYER POPULATION ANALYSIS *
                      *****************************

  NA   - Mulliken gross atomic population
  ZA   - Total nuclear charge
  QA   - Mulliken gross atomic charge
  VA   - Mayer's total valence
  BVA  - Mayer's bonded valence
  FA   - Mayer's free valence

  ATOM       NA         ZA         QA         VA         BVA        FA
  0 C      6.0963     6.0000    -0.0963     4.2002     4.1970     0.0032
  1 C      6.2350     6.0000    -0.2350     3.8907     2.9988     0.8919
  2 C      6.2433     6.0000    -0.2433     3.9588     3.9588     0.0000
  3 C      6.2314     6.0000    -0.2314     3.9359     3.9340     0.0019
  4 H      0.9305     1.0000     0.0695     0.9381     0.9375     0.0005
  5 H      0.8996     1.0000     0.1004     0.9497     0.9469     0.0028
  6 H      0.8995     1.0000     0.1005     0.9562     0.9533     0.0029
  7 H      0.9044     1.0000     0.0956     0.9544     0.9544     0.0000
  8 H      0.9136     1.0000     0.0864     0.9614     0.9614     0.0000
  9 H      0.9113     1.0000     0.0887     0.9577     0.9577     0.0000
 10 H      0.9140     1.0000     0.0860     0.9645     0.9645     0.0000
 11 H      0.9105     1.0000     0.0895     0.9581     0.9581     0.0000
 12 H      0.9105     1.0000     0.0895     0.9569     0.9567     0.0002

  Mayer bond orders larger than 0.100000
B(  0-C ,  1-C ) :   1.0825 B(  0-C ,  2-C ) :   1.0961 B(  0-C ,  3-C ) :   1.0760 
B(  0-C ,  4-H ) :   0.9104 B(  1-C ,  5-H ) :   0.9411 B(  1-C ,  6-H ) :   0.9416 
B(  2-C ,  7-H ) :   0.9598 B(  2-C ,  8-H ) :   0.9550 B(  2-C ,  9-H ) :   0.9581 
B(  3-C , 10-H ) :   0.9571 B(  3-C , 11-H ) :   0.9591 B(  3-C , 12-H ) :   0.9535 


-------
TIMINGS
-------

Total SCF time: 0 days 0 hours 1 min 2 sec 

Total time                  ....      62.790 sec
Sum of individual times     ....      52.101 sec  ( 83.0%)

Fock matrix formation       ....      41.932 sec  ( 66.8%)
  XC integration            ....      20.718 sec  ( 49.4% of F)
    Basis function eval.    ....       0.624 sec  (  3.0% of XC)
    Density eval.           ....       0.407 sec  (  2.0% of XC)
    XC-Functional eval.     ....       0.296 sec  (  1.4% of XC)
    XC-Potential eval.      ....       0.598 sec  (  2.9% of XC)
Diagonalization             ....       0.066 sec  (  0.1%)
Density matrix formation    ....       5.788 sec  (  9.2%)
Population analysis         ....       2.609 sec  (  4.2%)
Initial guess               ....       0.004 sec  (  0.0%)
Orbital Transformation      ....       0.000 sec  (  0.0%)
Orbital Orthonormalization  ....       0.001 sec  (  0.0%)
DIIS solution               ....       0.696 sec  (  1.1%)
Grid generation             ....       1.006 sec  (  1.6%)


-------------------------------------------------------------------------------
                          DFT DISPERSION CORRECTION                            
                                                                               
                              DFTD3 V3.1  Rev 1                                
                          USING Becke-Johnson damping                          
-------------------------------------------------------------------------------
The B3LYP functional is recognized
Active option DFTDOPT                   ...         4   

molecular C6(AA) [au] = 1132.639702 


            DFT-D V3
 parameters
 s6 scaling factor         :     1.0000 
 a1 scaling factor         :     0.3981 
 s8 scaling factor         :     1.9889 
 a2 scaling factor         :     4.4211 
 ad hoc parameters k1-k3   :    16.0000     1.3333    -4.0000 

 Edisp/kcal,au: -9.027147220437  -0.014385673254 
 E6   /kcal   :  -4.468209670 
 E8   /kcal   :  -4.558937550 
 % E8         :  50.502527971 

-------------------------   ----------------
Dispersion correction           -0.014385673
-------------------------   ----------------


-------------------------   --------------------
FINAL SINGLE POINT ENERGY      -157.545001491080
-------------------------   --------------------

                                *** OPTIMIZATION RUN DONE ***

                            ***************************************
                            *     ORCA property calculations      *
                            ***************************************

                                    ---------------------
                                    Active property flags
                                    ---------------------
   (+) Dipole Moment


------------------------------------------------------------------------------
                       ORCA ELECTRIC PROPERTIES CALCULATION
------------------------------------------------------------------------------

Dipole Moment Calculation                       ... on
Quadrupole Moment Calculation                   ... off
Polarizability Calculation                      ... off
GBWName                                         ... orca9.gbw
Electron density file                           ... orca9.scfp
The origin for moment calculation is the CENTER OF MASS  = (-0.027701, -0.147101  0.040785)

-------------
DIPOLE MOMENT
-------------
                                X             Y             Z
Electronic contribution:     -0.66471       1.08641       0.23675
Nuclear contribution   :      0.68839      -1.15385      -0.18487
                        -----------------------------------------
Total Dipole Moment    :      0.02367      -0.06744       0.05188
                        -----------------------------------------
Magnitude (a.u.)       :      0.08832
Magnitude (Debye)      :      0.22448



--------------------
Rotational spectrum 
--------------------
 
Rotational constants in cm-1:     0.274632     0.261805     0.154862 
Rotational constants in MHz :  8233.263600  7848.703983  4642.640549 

 Dipole components along the rotational axes: 
x,y,z [a.u.] :    -0.029360     0.079502     0.024847 
x,y,z [Debye]:    -0.074627     0.202077     0.063156 

 

Timings for individual modules:

Sum of individual times         ...     8717.113 sec (= 145.285 min)
GTO integral calculation        ...      198.401 sec (=   3.307 min)   2.3 %
SCF iterations                  ...     8315.831 sec (= 138.597 min)  95.4 %
SCF Gradient evaluation         ...      129.706 sec (=   2.162 min)   1.5 %
Geometry relaxation             ...       73.176 sec (=   1.220 min)   0.8 %
                             ****ORCA TERMINATED NORMALLY****
TOTAL RUN TIME: 0 days 2 hours 30 minutes 28 seconds 921 msec
