
                                 *****************
                                 * O   R   C   A *
                                 *****************

           --- An Ab Initio, DFT and Semiempirical electronic structure package ---

                  #######################################################
                  #                        -***-                        #
                  #          Department of theory and spectroscopy      #
                  #               Directorship: Frank Neese             #
                  #        Max Planck Institute fuer Kohlenforschung    #
                  #                Kaiser Wilhelm Platz 1               #
                  #                 D-45470 Muelheim/Ruhr               #
                  #                      Germany                        #
                  #                                                     #
                  #                  All rights reserved                #
                  #                        -***-                        #
                  #######################################################


                         Program Version 4.2.1 -  RELEASE  -


 With contributions from (in alphabetic order):
   Daniel Aravena         : Magnetic Suceptibility
   Michael Atanasov       : Ab Initio Ligand Field Theory (pilot matlab implementation)
   Alexander A. Auer      : GIAO ZORA, VPT2
   Ute Becker             : Parallelization
   Giovanni Bistoni       : ED, misc. LED, open-shell LED, HFLD
   Martin Brehm           : Molecular dynamics
   Dmytro Bykov           : SCF Hessian
   Vijay G. Chilkuri      : MRCI spin determinant printing, contributions to CSF-ICE
   Dipayan Datta          : RHF DLPNO-CCSD density
   Achintya Kumar Dutta   : EOM-CC, STEOM-CC
   Dmitry Ganyushin       : Spin-Orbit,Spin-Spin,Magnetic field MRCI
   Miquel Garcia          : C-PCM Hessian, Gaussian charge scheme
   Yang Guo               : DLPNO-NEVPT2, CIM, IAO-localization
   Andreas Hansen         : Spin unrestricted coupled pair/coupled cluster methods
   Benjamin Helmich-Paris : CASSCF linear response (MC-RPA)
   Lee Huntington         : MR-EOM, pCC
   Robert Izsak           : Overlap fitted RIJCOSX, COSX-SCS-MP3, EOM
   Christian Kollmar      : KDIIS, OOCD, Brueckner-CCSD(T), CCSD density
   Simone Kossmann        : Meta GGA functionals, TD-DFT gradient, OOMP2, MP2 Hessian
   Martin Krupicka        : AUTO-CI
   Lucas Lang             : DCDCAS
   Dagmar Lenk            : GEPOL surface, SMD
   Dimitrios Liakos       : Extrapolation schemes; Compound Job, initial MDCI parallelization
   Dimitrios Manganas     : Further ROCIS development; embedding schemes
   Dimitrios Pantazis     : SARC Basis sets
   Taras Petrenko         : DFT Hessian,TD-DFT gradient, ASA, ECA, R-Raman, ABS, FL, XAS/XES, NRVS
   Peter Pinski           : DLPNO-MP2, DLPNO-MP2 Gradient
   Christoph Reimann      : Effective Core Potentials
   Marius Retegan         : Local ZFS, SOC
   Christoph Riplinger    : Optimizer, TS searches, QM/MM, DLPNO-CCSD(T), (RO)-DLPNO pert. Triples
   Tobias Risthaus        : Range-separated hybrids, TD-DFT gradient, RPA, STAB
   Michael Roemelt        : Original ROCIS implementation
   Masaaki Saitow         : Open-shell DLPNO-CCSD energy and density
   Barbara Sandhoefer     : DKH picture change effects
   Avijit Sen             : IP-ROCIS
   Kantharuban Sivalingam : CASSCF convergence, NEVPT2, FIC-MRCI
   Bernardo de Souza      : ESD, SOC TD-DFT
   Georgi Stoychev        : AutoAux, RI-MP2 NMR
   Willem Van den Heuvel  : Paramagnetic NMR
   Boris Wezisla          : Elementary symmetry handling
   Frank Wennmohs         : Technical directorship


 We gratefully acknowledge several colleagues who have allowed us to
 interface, adapt or use parts of their codes:
   Stefan Grimme, W. Hujo, H. Kruse,             : VdW corrections, initial TS optimization,
                  C. Bannwarth                     DFT functionals, gCP, sTDA/sTD-DF
   Ed Valeev, F. Pavosevic, A. Kumar             : LibInt (2-el integral package), F12 methods
   Garnet Chan, S. Sharma, J. Yang, R. Olivares  : DMRG
   Ulf Ekstrom                                   : XCFun DFT Library
   Mihaly Kallay                                 : mrcc  (arbitrary order and MRCC methods)
   Andreas Klamt, Michael Diedenhofen            : otool_cosmo (COSMO solvation model)
   Jiri Pittner, Ondrej Demel                    : Mk-CCSD
   Frank Weinhold                                : gennbo (NPA and NBO analysis)
   Christopher J. Cramer and Donald G. Truhlar   : smd solvation model
   Lars Goerigk                                  : TD-DFT with DH, B97 family of functionals
   V. Asgeirsson, H. Jonsson                     : NEB implementation
   FAccTs GmbH                                   : IRC, NEB, NEB-TS, Multilevel, MM, QM/MM, CI optimization
   S Lehtola, MJT Oliveira, MAL Marques          : LibXC Library


 Your calculation uses the libint2 library for the computation of 2-el integrals
 For citations please refer to: http://libint.valeyev.net

 Your ORCA version has been built with support for libXC version: 4.2.3
 For citations please refer to: https://tddft.org/programs/libxc/

 This ORCA versions uses:
   CBLAS   interface :  Fast vector & matrix operations
   LAPACKE interface :  Fast linear algebra routines
   SCALAPACK package :  Parallel linear algebra routines


Your calculation utilizes the atom-pairwise dispersion correction
with the Becke-Johnson damping scheme (D3BJ)
Cite in your paper:
S.Grimme, S.Ehrlich, L.Goerigk, J Comput Chem, (2011), 32, 1456–1465 
S.Grimme, J.Antony, S.Ehrlich and H.Krieg, J.Chem.Phys., 132, (2010), 154104 
   

----- Orbital basis set information -----
Your calculation utilizes the basis: def2-SV(P)
   F. Weigend and R. Ahlrichs, Phys. Chem. Chem. Phys. 7, 3297 (2005).

----- AuxJ basis set information -----
Your calculation utilizes the auxiliary basis: def2/J
   F. Weigend, Phys. Chem. Chem. Phys. 8, 1057 (2006).

================================================================================
                                        WARNINGS
                       Please study these warnings very carefully!
================================================================================


WARNING: Geometry Optimization
  ===> : Switching off AutoStart
         For restart on a previous wavefunction, please use MOREAD

INFO   : the flag for use of LIBINT has been found!

================================================================================
                                       INPUT FILE
================================================================================
NAME = orca6.inp
|  1> ! UKS B3LYP def2-SV(P) def2/J D3BJ Opt
|  2> %scf Convergence VeryTight
|  3> SmearTemp 2000
|  4> maxiter 500
|  5> end
|  6> *xyz 0 2
|  7> C 0.065938 -0.016435 -0.305895
|  8> C -1.209786 -0.820465 -0.109793
|  9> C 1.250622 -0.635312 0.370333
| 10> C -0.123539 1.43293 0.046074
| 11> H 0.269424 -0.055465 -1.40549
| 12> H -1.421246 -1.014355 0.958372
| 13> H -1.157502 -1.762487 -0.712309
| 14> H 1.417615 -1.64138 -0.061949
| 15> H 2.143556 -0.033596 0.06474
| 16> H 1.216795 -0.612873 1.467722
| 17> H -0.950459 1.821362 -0.575084
| 18> H 0.806183 1.962775 -0.282903
| 19> H -0.28748 1.591521 1.138588
| 20> *
| 21> 
| 22>                          ****END OF INPUT****
================================================================================

                       *****************************
                       * Geometry Optimization Run *
                       *****************************

Geometry optimization settings:
Update method            Update   .... BFGS
Choice of coordinates    CoordSys .... Z-matrix Internals
Initial Hessian          InHess   .... Almoef's Model

Convergence Tolerances:
Energy Change            TolE     ....  5.0000e-06 Eh
Max. Gradient            TolMAXG  ....  3.0000e-04 Eh/bohr
RMS Gradient             TolRMSG  ....  1.0000e-04 Eh/bohr
Max. Displacement        TolMAXD  ....  4.0000e-03 bohr
RMS Displacement         TolRMSD  ....  2.0000e-03 bohr
Strict Convergence                ....  False
------------------------------------------------------------------------------
                        ORCA OPTIMIZATION COORDINATE SETUP
------------------------------------------------------------------------------

The optimization will be done in new redundant internal coordinates
Making redundant internal coordinates   ...  (new redundants) done
Evaluating the initial hessian          ...  (Almloef) done
Evaluating the coordinates              ...  done
Calculating the B-matrix                .... done
Calculating the G-matrix                .... done
Diagonalizing the G-matrix              .... done
The first mode is                       ....   24
The number of degrees of freedom        ....   33

    -----------------------------------------------------------------
                    Redundant Internal Coordinates


    -----------------------------------------------------------------
         Definition                    Initial Value    Approx d2E/dq
    -----------------------------------------------------------------
      1. B(C   1,C   0)                  1.5207         0.386622   
      2. B(C   2,C   0)                  1.4979         0.420297   
      3. B(C   3,C   0)                  1.5035         0.411807   
      4. B(H   4,C   0)                  1.1189         0.323774   
      5. B(H   5,C   1)                  1.1060         0.339516   
      6. B(H   6,C   1)                  1.1194         0.323177   
      7. B(H   7,C   2)                  1.1077         0.337470   
      8. B(H   8,C   2)                  1.1193         0.323381   
      9. B(H   9,C   2)                  1.0981         0.349492   
     10. B(H  10,C   3)                  1.1048         0.341084   
     11. B(H  11,C   3)                  1.1195         0.323081   
     12. B(H  12,C   3)                  1.1161         0.327211   
     13. A(C   1,C   0,H   4)          105.1205         0.320515   
     14. A(C   2,C   0,H   4)          106.5827         0.324933   
     15. A(C   1,C   0,C   2)          112.7572         0.372965   
     16. A(C   1,C   0,C   3)          111.9497         0.371657   
     17. A(C   2,C   0,C   3)          113.0961         0.377051   
     18. A(C   3,C   0,H   4)          106.6545         0.323845   
     19. A(H   5,C   1,H   6)          112.4089         0.283351   
     20. A(C   0,C   1,H   6)          109.6544         0.320418   
     21. A(C   0,C   1,H   5)          112.1869         0.323016   
     22. A(H   7,C   2,H   9)          114.4060         0.286554   
     23. A(C   0,C   2,H   9)          114.7293         0.329050   
     24. A(H   7,C   2,H   8)          105.1565         0.283113   
     25. A(C   0,C   2,H   8)          106.5937         0.324868   
     26. A(H   8,C   2,H   9)          106.6444         0.284657   
     27. A(C   0,C   2,H   7)          108.5609         0.327155   
     28. A(H  11,C   3,H  12)          110.0223         0.281721   
     29. A(H  10,C   3,H  12)          112.9841         0.284101   
     30. A(C   0,C   3,H  12)          112.6225         0.324407   
     31. A(H  10,C   3,H  11)          106.8566         0.283540   
     32. A(C   0,C   3,H  11)          106.4268         0.323731   
     33. A(C   0,C   3,H  10)          107.5565         0.326630   
     34. D(H   6,C   1,C   0,C   3)    159.3549         0.011131   
     35. D(H   6,C   1,C   0,H   4)     43.9526         0.011131   
     36. D(H   6,C   1,C   0,C   2)    -71.7652         0.011131   
     37. D(H   5,C   1,C   0,H   4)    169.6020         0.011131   
     38. D(H   5,C   1,C   0,C   2)     53.8842         0.011131   
     39. D(H   5,C   1,C   0,C   3)    -74.9957         0.011131   
     40. D(H   7,C   2,C   0,C   1)     60.7935         0.013976   
     41. D(H   9,C   2,C   0,C   1)    -68.5915         0.013976   
     42. D(H   8,C   2,C   0,H   4)     58.7756         0.013976   
     43. D(H   8,C   2,C   0,C   1)    173.6141         0.013976   
     44. D(H   7,C   2,C   0,H   4)    -54.0450         0.013976   
     45. D(H   7,C   2,C   0,C   3)   -170.9226         0.013976   
     46. D(H   9,C   2,C   0,C   3)     59.6925         0.013976   
     47. D(H   9,C   2,C   0,H   4)    176.5700         0.013976   
     48. D(H   8,C   2,C   0,C   3)    -58.1019         0.013976   
     49. D(H  12,C   3,C   0,H   4)   -177.3492         0.013430   
     50. D(H  12,C   3,C   0,C   1)     68.1876         0.013430   
     51. D(H  11,C   3,C   0,H   4)    -56.7140         0.013430   
     52. D(H  11,C   3,C   0,C   2)     60.1212         0.013430   
     53. D(H  11,C   3,C   0,C   1)   -171.1772         0.013430   
     54. D(H  10,C   3,C   0,H   4)     57.5138         0.013430   
     55. D(H  12,C   3,C   0,C   2)    -60.5140         0.013430   
     56. D(H  10,C   3,C   0,C   2)    174.3490         0.013430   
     57. D(H  10,C   3,C   0,C   1)    -56.9494         0.013430   
    -----------------------------------------------------------------

Number of atoms                         .... 13
Number of degrees of freedom            .... 57

Time needed for optimization step       :     4.42 sec

         *************************************************************
         *                GEOMETRY OPTIMIZATION CYCLE   1            *
         *************************************************************
---------------------------------
CARTESIAN COORDINATES (ANGSTROEM)
---------------------------------
  C      0.065938   -0.016435   -0.305895
  C     -1.209786   -0.820465   -0.109793
  C      1.250622   -0.635312    0.370333
  C     -0.123539    1.432930    0.046074
  H      0.269424   -0.055465   -1.405490
  H     -1.421246   -1.014355    0.958372
  H     -1.157502   -1.762487   -0.712309
  H      1.417615   -1.641380   -0.061949
  H      2.143556   -0.033596    0.064740
  H      1.216795   -0.612873    1.467722
  H     -0.950459    1.821362   -0.575084
  H      0.806183    1.962775   -0.282903
  H     -0.287480    1.591521    1.138588

----------------------------
CARTESIAN COORDINATES (A.U.)
----------------------------
  NO LB      ZA    FRAG     MASS         X           Y           Z
   0 C     6.0000    0    12.011    0.124605   -0.031058   -0.578058
   1 C     6.0000    0    12.011   -2.286164   -1.550454   -0.207479
   2 C     6.0000    0    12.011    2.363333   -1.200566    0.699828
   3 C     6.0000    0    12.011   -0.233455    2.707845    0.087067
   4 H     1.0000    0     1.008    0.509138   -0.104814   -2.655991
   5 H     1.0000    0     1.008   -2.685766   -1.916853    1.811061
   6 H     1.0000    0     1.008   -2.187362   -3.330618   -1.346069
   7 H     1.0000    0     1.008    2.678904   -3.101759   -0.117067
   8 H     1.0000    0     1.008    4.050734   -0.063487    0.122341
   9 H     1.0000    0     1.008    2.299409   -1.158162    2.773593
  10 H     1.0000    0     1.008   -1.796107    3.441875   -1.086751
  11 H     1.0000    0     1.008    1.523465    3.709107   -0.534609
  12 H     1.0000    0     1.008   -0.543258    3.007539    2.151619

--------------------------------
INTERNAL COORDINATES (ANGSTROEM)
--------------------------------
 C      0   0   0     0.000000000000     0.00000000     0.00000000
 C      1   0   0     1.520655108655     0.00000000     0.00000000
 C      1   2   0     1.497921636458   112.75724640     0.00000000
 C      1   2   3     1.503476841762   111.94970912   231.12010518
 H      1   2   3     1.118945511239   105.12047993   115.71772717
 H      2   1   3     1.106022210864   112.18694007    53.88423220
 H      2   1   3     1.119448344229   109.65438475   288.23482976
 H      3   1   2     1.107667463726   108.56094960    60.79345095
 H      3   1   2     1.119276710497   106.59372280   173.61412120
 H      3   1   2     1.098139513892   114.72925944   291.40847764
 H      4   1   2     1.104768467141   107.55654931   303.05059426
 H      4   1   2     1.119528734708   106.42679578   188.82279227
 H      4   1   2     1.116071053723   112.62248189    68.18761224

---------------------------
INTERNAL COORDINATES (A.U.)
---------------------------
 C      0   0   0     0.000000000000     0.00000000     0.00000000
 C      1   0   0     2.873621699507     0.00000000     0.00000000
 C      1   2   0     2.830661662981   112.75724640     0.00000000
 C      1   2   3     2.841159479623   111.94970912   231.12010518
 H      1   2   3     2.114500575021   105.12047993   115.71772717
 H      2   1   3     2.090079076567   112.18694007    53.88423220
 H      2   1   3     2.115450791664   109.65438475   288.23482976
 H      3   1   2     2.093188153897   108.56094960    60.79345095
 H      3   1   2     2.115126450916   106.59372280   173.61412120
 H      3   1   2     2.075182938093   114.72925944   291.40847764
 H      4   1   2     2.087709844288   107.55654931   303.05059426
 H      4   1   2     2.115602707654   106.42679578   188.82279227
 H      4   1   2     2.109068637533   112.62248189    68.18761224

---------------------
BASIS SET INFORMATION
---------------------
There are 2 groups of distinct atoms

 Group   1 Type C   : 7s4p1d contracted to 3s2p1d pattern {511/31/1}
 Group   2 Type H   : 4s contracted to 2s pattern {31}

Atom   0C    basis set group =>   1
Atom   1C    basis set group =>   1
Atom   2C    basis set group =>   1
Atom   3C    basis set group =>   1
Atom   4H    basis set group =>   2
Atom   5H    basis set group =>   2
Atom   6H    basis set group =>   2
Atom   7H    basis set group =>   2
Atom   8H    basis set group =>   2
Atom   9H    basis set group =>   2
Atom  10H    basis set group =>   2
Atom  11H    basis set group =>   2
Atom  12H    basis set group =>   2
---------------------------------
AUXILIARY/J BASIS SET INFORMATION
---------------------------------
There are 2 groups of distinct atoms

 Group   1 Type C   : 12s5p4d2f1g contracted to 6s4p3d1f1g pattern {711111/2111/211/2/1}
 Group   2 Type H   : 5s2p1d contracted to 3s1p1d pattern {311/2/1}

Atom   0C    basis set group =>   1
Atom   1C    basis set group =>   1
Atom   2C    basis set group =>   1
Atom   3C    basis set group =>   1
Atom   4H    basis set group =>   2
Atom   5H    basis set group =>   2
Atom   6H    basis set group =>   2
Atom   7H    basis set group =>   2
Atom   8H    basis set group =>   2
Atom   9H    basis set group =>   2
Atom  10H    basis set group =>   2
Atom  11H    basis set group =>   2
Atom  12H    basis set group =>   2
------------------------------------------------------------------------------
                           ORCA GTO INTEGRAL CALCULATION
------------------------------------------------------------------------------

                         BASIS SET STATISTICS AND STARTUP INFO

 # of primitive gaussian shells          ...   84
 # of primitive gaussian functions       ...  132
 # of contracted shells                  ...   42
 # of contracted basis functions         ...   74
 Highest angular momentum                ...    2
 Maximum contraction depth               ...    5
 Integral package used                   ... LIBINT
 Integral threshhold            Thresh   ...  1.000e-12
 Primitive cut-off              TCut     ...  1.000e-14


------------------------------ INTEGRAL EVALUATION ----------------------------


 * One electron integrals 
 Pre-screening matrix                    ... done
 Shell pair data                         ... done (   0.000 sec)

-------------------------------------------------------------------------------
                                 ORCA SCF
-------------------------------------------------------------------------------

------------
SCF SETTINGS
------------
Hamiltonian:
 Density Functional     Method          .... DFT(GTOs)
 Exchange Functional    Exchange        .... B88
   X-Alpha parameter    XAlpha          ....  0.666667
   Becke's b parameter  XBeta           ....  0.004200
 Correlation Functional Correlation     .... LYP
 LDA part of GGA corr.  LDAOpt          .... VWN-5
 Gradients option       PostSCFGGA      .... off
 Hybrid DFT is turned on
   Fraction HF Exchange ScalHFX         ....  0.200000
   Scaling of DF-GGA-X  ScalDFX         ....  0.720000
   Scaling of DF-GGA-C  ScalDFC         ....  0.810000
   Scaling of DF-LDA-C  ScalLDAC        ....  1.000000
   Perturbative correction              ....  0.000000
   Density functional embedding theory  .... OFF
   NL short-range parameter             ....  4.800000


General Settings:
 Integral files         IntName         .... orca6
 Hartree-Fock type      HFTyp           .... UHF
 Total Charge           Charge          ....    0
 Multiplicity           Mult            ....    2
 Number of Electrons    NEL             ....   33
 Basis Dimension        Dim             ....   74
 Nuclear Repulsion      ENuc            ....    126.8024212923 Eh

Convergence Acceleration:
 DIIS                   CNVDIIS         .... on
   Start iteration      DIISMaxIt       ....    12
   Startup error        DIISStart       ....  0.200000
   # of expansion vecs  DIISMaxEq       ....     5
   Bias factor          DIISBfac        ....   1.050
   Max. coefficient     DIISMaxC        ....  10.000
 Newton-Raphson         CNVNR           .... off
 SOSCF                  CNVSOSCF        .... off
 Level Shifting         CNVShift        .... on
   Level shift para.    LevelShift      ....    0.2500
   Turn off err/grad.   ShiftErr        ....    0.0010
 Zerner damping         CNVZerner       .... off
 Static damping         CNVDamp         .... on
   Fraction old density DampFac         ....    0.7000
   Max. Damping (<1)    DampMax         ....    0.9800
   Min. Damping (>=0)   DampMin         ....    0.0000
   Turn off err/grad.   DampErr         ....    0.1000
 Fernandez-Rico         CNVRico         .... off

SCF Procedure:
 Maximum # iterations   MaxIter         ....   500
 SCF integral mode      SCFMode         .... Direct
   Integral package                     .... LIBINT
 Reset frequency        DirectResetFreq ....    20
 Integral Threshold     Thresh          ....  1.000e-12 Eh
 Primitive CutOff       TCut            ....  1.000e-14 Eh

Convergence Tolerance:
 Convergence Check Mode ConvCheckMode   .... Total+1el-Energy
 Convergence forced     ConvForced      .... 0
 Energy Change          TolE            ....  1.000e-09 Eh
 1-El. energy change                    ....  1.000e-06 Eh
 DIIS Error             TolErr          ....  1.000e-08


Diagonalization of the overlap matrix:
Smallest eigenvalue                        ... 2.205e-03
Time for diagonalization                   ...    0.001 sec
Threshold for overlap eigenvalues          ... 1.000e-08
Number of eigenvalues below threshold      ... 0
Time for construction of square roots      ...    8.713 sec
Total time needed                          ...    8.714 sec

-------------------
DFT GRID GENERATION
-------------------

General Integration Accuracy     IntAcc      ...  4.340
Radial Grid Type                 RadialGrid  ... Gauss-Chebyshev
Angular Grid (max. acc.)         AngularGrid ... Lebedev-110
Angular grid pruning method      GridPruning ... 3 (G Style)
Weight generation scheme         WeightScheme... Becke
Basis function cutoff            BFCut       ...    1.0000e-12
Integration weight cutoff        WCut        ...    1.0000e-14
Grids for H and He will be reduced by one unit

# of grid points (after initial pruning)     ...  13770 (   0.0 sec)
# of grid points (after weights+screening)   ...  12898 (   0.0 sec)
nearest neighbour list constructed           ...    0.0 sec
Grid point re-assignment to atoms done       ...    0.0 sec
Grid point division into batches done        ...    0.0 sec
Reduced shell lists constructed in    0.1 sec

Total number of grid points                  ...    12898
Total number of batches                      ...      208
Average number of points per batch           ...       62
Average number of grid points per atom       ...      992
Average number of shells per batch           ...    37.34 (88.90%)
Average number of basis functions per batch  ...    66.55 (89.93%)
Average number of large shells per batch     ...    32.89 (88.07%)
Average number of large basis fcns per batch ...    58.11 (87.32%)
Maximum spatial batch extension              ...  20.15, 20.68, 22.44 au
Average spatial batch extension              ...   4.10,  4.25,  3.98 au

Time for grid setup =    2.172 sec

------------------------------
INITIAL GUESS: MODEL POTENTIAL
------------------------------
Loading Hartree-Fock densities                     ... done
Calculating cut-offs                               ... done
Setting up the integral package                    ... done
Initializing the effective Hamiltonian             ... done
Starting the Coulomb interaction                   ... done (   0.0 sec)
Reading the grid                                   ... done
Mapping shells                                     ... done
Starting the XC term evaluation                    ... done (   0.1 sec)
  promolecular density results
     # of electrons  =     33.000660304
     EX              =    -23.182688838
     EC              =     -1.031114886
     EX+EC           =    -24.213803724
Transforming the Hamiltonian                       ... done (   1.7 sec)
Diagonalizing the Hamiltonian                      ... done (   0.0 sec)
Back transforming the eigenvectors                 ... done (   0.0 sec)
Now organizing SCF variables                       ... done
                      ------------------
                      INITIAL GUESS DONE (   4.1 sec)
                      ------------------
--------------
SCF ITERATIONS
--------------
ITER       Energy         Delta-E        Max-DP      RMS-DP      [F,P]     Damp
               ***  Starting incremental Fock matrix formation  ***
  0   -157.3682976282   0.000000000000 0.04261502  0.00206754  0.1717569 0.7000
  1   -157.4370017062  -0.068704078009 0.02619533  0.00148813  0.0885015 0.7000
                               ***Turning on DIIS***
  2   -157.4647062535  -0.027704547309 0.03729586  0.00248457  0.0323005 0.0000
  3   -157.5025541377  -0.037847884134 0.01774989  0.00102180  0.0490105 0.0000
  4   -157.5148260853  -0.012271947619 0.00576146  0.00031883  0.0095476 0.0000
  5   -157.5154750593  -0.000648974036 0.00181602  0.00011332  0.0022099 0.0000
  6   -157.5155290279  -0.000053968603 0.00122757  0.00007522  0.0007374 0.0000
  7   -157.5155399841  -0.000010956186 0.00040083  0.00001353  0.0001878 0.0000
  8   -157.5155409024  -0.000000918291 0.00015223  0.00000509  0.0001137 0.0000
  9   -157.5155410268  -0.000000124337 0.00006707  0.00000209  0.0000523 0.0000
 10   -157.5155410523  -0.000000025509 0.00002311  0.00000081  0.0000116 0.0000
 11   -157.5155410571  -0.000000004873 0.00001329  0.00000052  0.0000025 0.0000
 12   -157.5155410585  -0.000000001394 0.00000338  0.00000012  0.0000010 0.0000
 13   -157.5155410587  -0.000000000127 0.00000304  0.00000012  0.0000008 0.0000
 14   -157.5155410587  -0.000000000060 0.00000102  0.00000004  0.0000003 0.0000
                 **** Energy Check signals convergence ****

 Fermi smearing  (ALPHA): E(HOMO(Eh)) = -0.319848 MUE = -0.089271 gap=   7.596 eV
 Fermi smearing   (BETA): E(HOMO(Eh)) = -0.315366 MUE = -0.188298 gap=   6.867 eV

N_FOD(alpha) =  0.000000
 N_FOD(beta) =  0.000000
       N_FOD =  0.000000

               *****************************************************
               *                     SUCCESS                       *
               *           SCF CONVERGED AFTER  15 CYCLES          *
               *****************************************************

Setting up the final grid:

General Integration Accuracy     IntAcc      ...  4.670
Radial Grid Type                 RadialGrid  ... Gauss-Chebyshev
Angular Grid (max. acc.)         AngularGrid ... Lebedev-302
Angular grid pruning method      GridPruning ... 3 (G Style)
Weight generation scheme         WeightScheme... Becke
Basis function cutoff            BFCut       ...    1.0000e-12
Integration weight cutoff        WCut        ...    1.0000e-14
Grids for H and He will be reduced by one unit

# of grid points (after initial pruning)     ...  55394 (   0.0 sec)
# of grid points (after weights+screening)   ...  51225 (   0.1 sec)
nearest neighbour list constructed           ...    0.0 sec
Grid point re-assignment to atoms done       ...    0.0 sec
Grid point division into batches done        ...    0.1 sec
Reduced shell lists constructed in    0.3 sec

Total number of grid points                  ...    51225
Total number of batches                      ...      808
Average number of points per batch           ...       63
Average number of grid points per atom       ...     3940
Average number of shells per batch           ...    34.98 (83.29%)
Average number of basis functions per batch  ...    62.16 (84.00%)
Average number of large shells per batch     ...    30.11 (86.08%)
Average number of large basis fcns per batch ...    52.89 (85.09%)
Maximum spatial batch extension              ...  22.12, 20.10, 19.32 au
Average spatial batch extension              ...   2.70,  2.60,  2.59 au

Final grid set up in    3.5 sec
Final integration                            ... done (  12.7 sec)
Change in XC energy                          ...     0.000148361
Integrated number of electrons               ...    33.000040336
Previous integrated no of electrons          ...    33.001839507

----------------
TOTAL SCF ENERGY
----------------

Total Energy       :         -157.51539270 Eh           -4286.21174 eV

Components:
Nuclear Repulsion  :          126.80242129 Eh            3450.46930 eV
Electronic Energy  :         -284.31781399 Eh           -7736.68104 eV
One Electron Energy:         -461.11430828 Eh          -12547.55823 eV
Two Electron Energy:          176.79649429 Eh            4810.87719 eV

Virial components:
Potential Energy   :         -313.35767064 Eh           -8526.89572 eV
Kinetic Energy     :          155.84227795 Eh            4240.68398 eV
Virial Ratio       :            2.01073595


DFT components:
N(Alpha)           :       17.000025829878 electrons
N(Beta)            :       16.000014506593 electrons
N(Total)           :       33.000040336471 electrons
E(X)               :      -18.879858518370 Eh       
E(C)               :       -1.219830925918 Eh       
E(XC)              :      -20.099689444287 Eh       
DFET-embed. en.    :        0.000000000000 Eh       

---------------
SCF CONVERGENCE
---------------

  Last Energy change         ...    2.3306e-12  Tolerance :   1.0000e-09
  Last MAX-Density change    ...    6.2441e-07  Tolerance :   1.0000e-08
  Last RMS-Density change    ...    2.4616e-08  Tolerance :   1.0000e-09
  Last DIIS Error            ...    1.1244e-07  Tolerance :   1.0000e-08

             **** THE GBW FILE WAS UPDATED (orca6.gbw) ****
             **** DENSITY FILE WAS UPDATED (orca6.scfp) ****
             **** ENERGY FILE WAS UPDATED (orca6.en.tmp) ****
             **** THE GBW FILE WAS UPDATED (orca6.gbw) ****
             **** DENSITY FILE WAS UPDATED (orca6.scfp) ****
----------------
ORBITAL ENERGIES
----------------
                 SPIN UP ORBITALS
  NO   OCC          E(Eh)            E(eV) 
   0   1.0000     -10.188409      -277.2407 
   1   1.0000     -10.181984      -277.0659 
   2   1.0000     -10.172765      -276.8150 
   3   1.0000     -10.167448      -276.6703 
   4   1.0000      -0.803106       -21.8536 
   5   1.0000      -0.675828       -18.3902 
   6   1.0000      -0.663814       -18.0633 
   7   1.0000      -0.542523       -14.7628 
   8   1.0000      -0.465592       -12.6694 
   9   1.0000      -0.432952       -11.7812 
  10   1.0000      -0.417496       -11.3607 
  11   1.0000      -0.396459       -10.7882 
  12   1.0000      -0.381892       -10.3918 
  13   1.0000      -0.343119        -9.3368 
  14   1.0000      -0.326998        -8.8981 
  15   1.0000      -0.319848        -8.7035 
  16   1.0000      -0.228837        -6.2270 
  17   0.0000       0.050295         1.3686 
  18   0.0000       0.093167         2.5352 
  19   0.0000       0.101977         2.7749 
  20   0.0000       0.114708         3.1214 
  21   0.0000       0.120769         3.2863 
  22   0.0000       0.143633         3.9085 
  23   0.0000       0.151969         4.1353 
  24   0.0000       0.163064         4.4372 
  25   0.0000       0.174759         4.7554 
  26   0.0000       0.214980         5.8499 
  27   0.0000       0.245742         6.6870 
  28   0.0000       0.251641         6.8475 
  29   0.0000       0.394664        10.7393 
  30   0.0000       0.418179        11.3792 
  31   0.0000       0.432621        11.7722 
  32   0.0000       0.451555        12.2874 
  33   0.0000       0.463778        12.6200 
  34   0.0000       0.496343        13.5062 
  35   0.0000       0.597477        16.2582 
  36   0.0000       0.617151        16.7935 
  37   0.0000       0.627246        17.0682 
  38   0.0000       0.651319        17.7233 
  39   0.0000       0.662652        18.0317 
  40   0.0000       0.668869        18.2008 
  41   0.0000       0.679915        18.5014 
  42   0.0000       0.693917        18.8824 
  43   0.0000       0.702168        19.1070 
  44   0.0000       0.706039        19.2123 
  45   0.0000       0.717709        19.5299 
  46   0.0000       0.726217        19.7614 
  47   0.0000       0.742357        20.2006 
  48   0.0000       0.746649        20.3173 
  49   0.0000       0.754061        20.5190 
  50   0.0000       0.781608        21.2686 
  51   0.0000       0.946294        25.7500 
  52   0.0000       1.048746        28.5378 
  53   0.0000       1.088494        29.6194 
  54   0.0000       1.406809        38.2812 
  55   0.0000       1.424368        38.7590 
  56   0.0000       1.722982        46.8847 
  57   0.0000       1.745358        47.4936 
  58   0.0000       1.766968        48.0816 
  59   0.0000       1.891529        51.4711 
  60   0.0000       1.921471        52.2859 
  61   0.0000       1.932070        52.5743 
  62   0.0000       1.955125        53.2017 
  63   0.0000       2.042365        55.5756 
  64   0.0000       2.067583        56.2618 
  65   0.0000       2.082177        56.6589 
  66   0.0000       2.120934        57.7135 
  67   0.0000       2.140826        58.2548 
  68   0.0000       2.154639        58.6307 
  69   0.0000       2.439965        66.3948 
  70   0.0000       2.456881        66.8551 
  71   0.0000       2.467400        67.1414 
  72   0.0000       2.692435        73.2649 
  73   0.0000       2.700251        73.4776 

                 SPIN DOWN ORBITALS
  NO   OCC          E(Eh)            E(eV) 
   0   1.0000     -10.182353      -277.0759 
   1   1.0000     -10.173134      -276.8250 
   2   1.0000     -10.171627      -276.7841 
   3   1.0000     -10.167031      -276.6590 
   4   1.0000      -0.796819       -21.6826 
   5   1.0000      -0.673870       -18.3369 
   6   1.0000      -0.641173       -17.4472 
   7   1.0000      -0.535972       -14.5845 
   8   1.0000      -0.461953       -12.5704 
   9   1.0000      -0.429641       -11.6911 
  10   1.0000      -0.411573       -11.1995 
  11   1.0000      -0.389817       -10.6075 
  12   1.0000      -0.377644       -10.2762 
  13   1.0000      -0.339260        -9.2317 
  14   1.0000      -0.322887        -8.7862 
  15   1.0000      -0.315366        -8.5816 
  16   0.0000      -0.063015        -1.7147 
  17   0.0000       0.051698         1.4068 
  18   0.0000       0.094646         2.5755 
  19   0.0000       0.105114         2.8603 
  20   0.0000       0.117761         3.2044 
  21   0.0000       0.123912         3.3718 
  22   0.0000       0.147334         4.0092 
  23   0.0000       0.152651         4.1538 
  24   0.0000       0.164968         4.4890 
  25   0.0000       0.178030         4.8444 
  26   0.0000       0.219210         5.9650 
  27   0.0000       0.253265         6.8917 
  28   0.0000       0.256067         6.9679 
  29   0.0000       0.398673        10.8484 
  30   0.0000       0.422115        11.4863 
  31   0.0000       0.435882        11.8609 
  32   0.0000       0.457008        12.4358 
  33   0.0000       0.474362        12.9080 
  34   0.0000       0.547772        14.9056 
  35   0.0000       0.606608        16.5066 
  36   0.0000       0.625390        17.0177 
  37   0.0000       0.632807        17.2196 
  38   0.0000       0.658415        17.9164 
  39   0.0000       0.667635        18.1673 
  40   0.0000       0.674976        18.3670 
  41   0.0000       0.684490        18.6259 
  42   0.0000       0.695342        18.9212 
  43   0.0000       0.706068        19.2131 
  44   0.0000       0.712257        19.3815 
  45   0.0000       0.718864        19.5613 
  46   0.0000       0.731698        19.9105 
  47   0.0000       0.745979        20.2991 
  48   0.0000       0.752770        20.4839 
  49   0.0000       0.759252        20.6603 
  50   0.0000       0.785699        21.3800 
  51   0.0000       0.954902        25.9842 
  52   0.0000       1.050862        28.5954 
  53   0.0000       1.090635        29.6777 
  54   0.0000       1.414504        38.4906 
  55   0.0000       1.435623        39.0653 
  56   0.0000       1.746859        47.5344 
  57   0.0000       1.756084        47.7855 
  58   0.0000       1.785407        48.5834 
  59   0.0000       1.918946        52.2172 
  60   0.0000       1.932323        52.5812 
  61   0.0000       1.957836        53.2754 
  62   0.0000       1.978963        53.8503 
  63   0.0000       2.052458        55.8502 
  64   0.0000       2.082206        56.6597 
  65   0.0000       2.097743        57.0825 
  66   0.0000       2.127349        57.8881 
  67   0.0000       2.143952        58.3399 
  68   0.0000       2.166141        58.9437 
  69   0.0000       2.449556        66.6558 
  70   0.0000       2.464388        67.0594 
  71   0.0000       2.472146        67.2705 
  72   0.0000       2.699775        73.4646 
  73   0.0000       2.707552        73.6762 

                    ********************************
                    * MULLIKEN POPULATION ANALYSIS *
                    ********************************

------------------------------------------
FOD BASED MULLIKEN REDUCED ORBITAL CHARGES
------------------------------------------
  0 C s       :    -0.000000  s :    -0.000000
      pz      :     0.000000  p :     0.000000
      px      :     0.000000
      py      :     0.000000
      dz2     :     0.000000  d :     0.000000
      dxz     :     0.000000
      dyz     :     0.000000
      dx2y2   :     0.000000
      dxy     :     0.000000
  1 C s       :     0.000000  s :     0.000000
      pz      :     0.000000  p :     0.000000
      px      :     0.000000
      py      :     0.000000
      dz2     :     0.000000  d :     0.000000
      dxz     :     0.000000
      dyz     :     0.000000
      dx2y2   :     0.000000
      dxy     :     0.000000
  2 C s       :    -0.000000  s :    -0.000000
      pz      :     0.000000  p :     0.000000
      px      :     0.000000
      py      :     0.000000
      dz2     :     0.000000  d :     0.000000
      dxz     :     0.000000
      dyz     :     0.000000
      dx2y2   :     0.000000
      dxy     :     0.000000
  3 C s       :    -0.000000  s :    -0.000000
      pz      :     0.000000  p :     0.000000
      px      :     0.000000
      py      :     0.000000
      dz2     :     0.000000  d :     0.000000
      dxz     :     0.000000
      dyz     :     0.000000
      dx2y2   :     0.000000
      dxy     :     0.000000
  4 H s       :     0.000000  s :     0.000000
  5 H s       :     0.000000  s :     0.000000
  6 H s       :     0.000000  s :     0.000000
  7 H s       :     0.000000  s :     0.000000
  8 H s       :     0.000000  s :     0.000000
  9 H s       :     0.000000  s :     0.000000
 10 H s       :     0.000000  s :     0.000000
 11 H s       :     0.000000  s :     0.000000
 12 H s       :     0.000000  s :     0.000000


                     *******************************
                     * LOEWDIN POPULATION ANALYSIS *
                     *******************************

-------------------------------------------
LOEWDIN ATOMIC CHARGES AND SPIN POPULATIONS
-------------------------------------------
   0 C :   -0.178284   -0.000075
   1 C :   -0.202377    0.961662
   2 C :   -0.301801    0.037787
   3 C :   -0.302935    0.013473
   4 H :    0.108099    0.002681
   5 H :    0.104581   -0.013054
   6 H :    0.105804   -0.014073
   7 H :    0.112724    0.000510
   8 H :    0.111217    0.009873
   9 H :    0.112452   -0.000560
  10 H :    0.114110    0.001279
  11 H :    0.107122    0.001000
  12 H :    0.109288   -0.000503

----------------------------------------------------
LOEWDIN REDUCED ORBITAL CHARGES AND SPIN POPULATIONS
----------------------------------------------------
CHARGE
  0 C s       :     2.869704  s :     2.869704
      pz      :     1.067222  p :     3.190800
      px      :     1.055655
      py      :     1.067923
      dz2     :     0.031423  d :     0.117780
      dxz     :     0.015269
      dyz     :     0.012197
      dx2y2   :     0.029668
      dxy     :     0.029223
  1 C s       :     3.054876  s :     3.054876
      pz      :     1.067062  p :     3.088001
      px      :     0.999383
      py      :     1.021557
      dz2     :     0.018190  d :     0.059499
      dxz     :     0.005384
      dyz     :     0.012782
      dx2y2   :     0.013906
      dxy     :     0.009237
  2 C s       :     2.950610  s :     2.950610
      pz      :     1.103569  p :     3.274417
      px      :     1.069469
      py      :     1.101379
      dz2     :     0.025053  d :     0.076774
      dxz     :     0.009829
      dyz     :     0.009075
      dx2y2   :     0.015846
      dxy     :     0.016971
  3 C s       :     2.954652  s :     2.954652
      pz      :     1.102071  p :     3.272835
      px      :     1.102619
      py      :     1.068144
      dz2     :     0.020168  d :     0.075448
      dxz     :     0.011862
      dyz     :     0.010926
      dx2y2   :     0.014542
      dxy     :     0.017951
  4 H s       :     0.891901  s :     0.891901
  5 H s       :     0.895419  s :     0.895419
  6 H s       :     0.894196  s :     0.894196
  7 H s       :     0.887276  s :     0.887276
  8 H s       :     0.888783  s :     0.888783
  9 H s       :     0.887548  s :     0.887548
 10 H s       :     0.885890  s :     0.885890
 11 H s       :     0.892878  s :     0.892878
 12 H s       :     0.890712  s :     0.890712

SPIN
  0 C s       :    -0.002932  s :    -0.002932
      pz      :    -0.002370  p :    -0.008651
      px      :     0.000206
      py      :    -0.006487
      dz2     :     0.000454  d :     0.011508
      dxz     :     0.002197
      dyz     :     0.000109
      dx2y2   :     0.006778
      dxy     :     0.001969
  1 C s       :     0.094805  s :     0.094805
      pz      :     0.127403  p :     0.870542
      px      :     0.490756
      py      :     0.252384
      dz2     :    -0.001384  d :    -0.003686
      dxz     :    -0.000059
      dyz     :    -0.000773
      dx2y2   :    -0.000669
      dxy     :    -0.000800
  2 C s       :     0.011635  s :     0.011635
      pz      :     0.004351  p :     0.025338
      px      :     0.019596
      py      :     0.001392
      dz2     :     0.000076  d :     0.000814
      dxz     :     0.000027
      dyz     :     0.000018
      dx2y2   :     0.000187
      dxy     :     0.000505
  3 C s       :     0.004086  s :     0.004086
      pz      :     0.001838  p :     0.009549
      px      :     0.001778
      py      :     0.005933
      dz2     :     0.000037  d :    -0.000162
      dxz     :     0.000006
      dyz     :    -0.000041
      dx2y2   :     0.000117
      dxy     :    -0.000281
  4 H s       :     0.002681  s :     0.002681
  5 H s       :    -0.013054  s :    -0.013054
  6 H s       :    -0.014073  s :    -0.014073
  7 H s       :     0.000510  s :     0.000510
  8 H s       :     0.009873  s :     0.009873
  9 H s       :    -0.000560  s :    -0.000560
 10 H s       :     0.001279  s :     0.001279
 11 H s       :     0.001000  s :     0.001000
 12 H s       :    -0.000503  s :    -0.000503


                      *****************************
                      * MAYER POPULATION ANALYSIS *
                      *****************************

  NA   - Mulliken gross atomic population
  ZA   - Total nuclear charge
  QA   - Mulliken gross atomic charge
  VA   - Mayer's total valence
  BVA  - Mayer's bonded valence
  FA   - Mayer's free valence

  ATOM       NA         ZA         QA         VA         BVA        FA
  0 C      6.1613     6.0000    -0.1613     4.2273     4.2247     0.0026
  1 C      6.1802     6.0000    -0.1802     3.8659     2.9899     0.8760
  2 C      6.2176     6.0000    -0.2176     3.9438     3.9426     0.0012
  3 C      6.2199     6.0000    -0.2199     3.9557     3.9556     0.0001
  4 H      0.9354     1.0000     0.0646     0.9351     0.9351     0.0000
  5 H      0.9123     1.0000     0.0877     0.9560     0.9547     0.0012
  6 H      0.9101     1.0000     0.0899     0.9506     0.9493     0.0013
  7 H      0.9110     1.0000     0.0890     0.9598     0.9598     0.0000
  8 H      0.9147     1.0000     0.0853     0.9590     0.9588     0.0003
  9 H      0.9058     1.0000     0.0942     0.9641     0.9641     0.0000
 10 H      0.9041     1.0000     0.0959     0.9566     0.9566     0.0000
 11 H      0.9171     1.0000     0.0829     0.9582     0.9582     0.0000
 12 H      0.9104     1.0000     0.0896     0.9640     0.9640     0.0000

  Mayer bond orders larger than 0.100000
B(  0-C ,  1-C ) :   1.0795 B(  0-C ,  2-C ) :   1.0910 B(  0-C ,  3-C ) :   1.1059 
B(  0-C ,  4-H ) :   0.9123 B(  1-C ,  5-H ) :   0.9443 B(  1-C ,  6-H ) :   0.9436 
B(  2-C ,  7-H ) :   0.9540 B(  2-C ,  8-H ) :   0.9491 B(  2-C ,  9-H ) :   0.9514 
B(  3-C , 10-H ) :   0.9562 B(  3-C , 11-H ) :   0.9551 B(  3-C , 12-H ) :   0.9550 


-------
TIMINGS
-------

Total SCF time: 0 days 0 hours 10 min 25 sec 

Total time                  ....     625.856 sec
Sum of individual times     ....     516.888 sec  ( 82.6%)

Fock matrix formation       ....     425.123 sec  ( 67.9%)
  XC integration            ....     234.479 sec  ( 55.2% of F)
    Basis function eval.    ....       0.726 sec  (  0.3% of XC)
    Density eval.           ....       0.545 sec  (  0.2% of XC)
    XC-Functional eval.     ....       0.316 sec  (  0.1% of XC)
    XC-Potential eval.      ....       0.816 sec  (  0.3% of XC)
Diagonalization             ....      13.121 sec  (  2.1%)
Density matrix formation    ....      37.939 sec  (  6.1%)
Population analysis         ....      21.242 sec  (  3.4%)
Initial guess               ....       1.942 sec  (  0.3%)
Orbital Transformation      ....       0.000 sec  (  0.0%)
Orbital Orthonormalization  ....       0.000 sec  (  0.0%)
DIIS solution               ....      11.825 sec  (  1.9%)
Grid generation             ....       5.695 sec  (  0.9%)


-------------------------------------------------------------------------------
                          DFT DISPERSION CORRECTION                            
                                                                               
                              DFTD3 V3.1  Rev 1                                
                          USING Becke-Johnson damping                          
-------------------------------------------------------------------------------
The B3LYP functional is recognized
Active option DFTDOPT                   ...         4   

molecular C6(AA) [au] = 1132.575315 


            DFT-D V3
 parameters
 s6 scaling factor         :     1.0000 
 a1 scaling factor         :     0.3981 
 s8 scaling factor         :     1.9889 
 a2 scaling factor         :     4.4211 
 ad hoc parameters k1-k3   :    16.0000     1.3333    -4.0000 

 Edisp/kcal,au: -9.171522451246  -0.014615749805 
 E6   /kcal   :  -4.543450169 
 E8   /kcal   :  -4.628072282 
 % E8         :  50.461330785 

-------------------------   ----------------
Dispersion correction           -0.014615750
-------------------------   ----------------


-------------------------   --------------------
FINAL SINGLE POINT ENERGY      -157.530008447473
-------------------------   --------------------

------------------------------------------------------------------------------
                         ORCA SCF GRADIENT CALCULATION
------------------------------------------------------------------------------

Gradient of the Kohn-Sham DFT energy:
Kohn-Sham wavefunction type      ... UKS
Hartree-Fock exchange scaling    ...    0.200
Number of operators              ...    2
Number of atoms                  ...   13
Basis set dimensions             ...   74
Integral neglect threshold       ... 1.0e-12
Integral primitive cutoff        ... 1.0e-14

Nuclear repulsion gradient       ... done
One Electron Gradient            ... done
Pre-screening matrix             ... done
Starting the two electron gradient:
Two electron gradient done
Exchange-correlation gradient    ... done
Dispersion correction            ... done

------------------
CARTESIAN GRADIENT
------------------

   1   C   :    0.029957064    0.001686528    0.023493034
   2   C   :   -0.033617332    0.023902481   -0.006426421
   3   C   :   -0.026072360    0.000244336    0.012672225
   4   C   :   -0.011530036   -0.014200570    0.005720808
   5   H   :   -0.000957924   -0.001906445   -0.005775494
   6   H   :    0.011813300   -0.003958868    0.002390870
   7   H   :    0.013638022   -0.008513466   -0.003709199
   8   H   :   -0.001053736    0.002674416   -0.011186315
   9   H   :    0.002594197    0.004391356   -0.004737357
  10   H   :    0.003722201    0.005959362   -0.004167543
  11   H   :    0.002335653   -0.005772117   -0.007885471
  12   H   :    0.007385288   -0.003016583   -0.008033377
  13   H   :    0.001785664   -0.001490429    0.007644241

Difference to translation invariance:
           :   -0.0000000000    0.0000000000    0.0000000000

Norm of the cartesian gradient     ...    0.0735889481
RMS gradient                       ...    0.0117836624
MAX gradient                       ...    0.0336173325

-------
TIMINGS
-------

Total SCF gradient time            ...        4.099 sec

One electron gradient       ....       0.026 sec  (  0.6%)
Prescreening matrices       ....       0.025 sec  (  0.6%)
Two electron gradient       ....       1.333 sec  ( 32.5%)
XC gradient                 ....       2.326 sec  ( 56.7%)
------------------------------------------------------------------------------
                         ORCA GEOMETRY RELAXATION STEP
------------------------------------------------------------------------------

Reading the OPT-File                    .... done
Getting information on internals        .... done
Copying old internal coords+grads       .... done
Making the new internal coordinates     .... (new redundants).... done
Validating the new internal coordinates .... (new redundants).... done
Calculating the B-matrix                .... done
Calculating the G,G- and P matrices     .... done
Transforming gradient to internals      .... done
Projecting the internal gradient        .... done
Number of atoms                         ....  13
Number of internal coordinates          ....  57
Current Energy                          ....  -157.530008447 Eh
Current gradient norm                   ....     0.073588948 Eh/bohr
Maximum allowed component of the step   ....  0.300
Current trust radius                    ....  0.300
Evaluating the initial hessian          ....  (Almloef) done
Projecting the Hessian                  .... done
Forming the augmented Hessian           .... done
Diagonalizing the augmented Hessian     .... done
Last element of RFO vector              ....  0.953267330
Lowest eigenvalues of augmented Hessian:
 -0.014004763  0.011260278  0.013437413  0.013976141  0.063535182
Length of the computed step             ....  0.316939544
Warning: the length of the step is outside the trust region - taking restricted step instead
The input lambda is                     ....    -0.014005
   iter:   1  x=   -0.018474  g=    2.338400 f(x)=     0.010451
   iter:   2  x=   -0.019031  g=    1.894883 f(x)=     0.001056
   iter:   3  x=   -0.019038  g=    1.850365 f(x)=     0.000012
   iter:   4  x=   -0.019038  g=    1.849837 f(x)=     0.000000
   iter:   5  x=   -0.019038  g=    1.849837 f(x)=     0.000000
The output lambda is                    ....    -0.019038 (5 iterations)
The final length of the internal step   ....  0.300000000
Converting the step to cartesian space:
 Initial RMS(Int)=    0.0397359707
Transforming coordinates:
 Iter   0:  RMS(Cart)=    0.0544455853 RMS(Int)=    0.0403211960
 Iter   1:  RMS(Cart)=    0.0034387374 RMS(Int)=    0.0024356509
 Iter   2:  RMS(Cart)=    0.0002112537 RMS(Int)=    0.0002020753
 Iter   3:  RMS(Cart)=    0.0000230647 RMS(Int)=    0.0000154589
 Iter   4:  RMS(Cart)=    0.0000025605 RMS(Int)=    0.0000022235
 Iter   5:  RMS(Cart)=    0.0000002126 RMS(Int)=    0.0000001618
 Iter   6:  RMS(Cart)=    0.0000000301 RMS(Int)=    0.0000000236
done
Storing new coordinates                 .... done

                                .--------------------.
          ----------------------|Geometry convergence|-------------------------
          Item                value                   Tolerance       Converged
          ---------------------------------------------------------------------
          RMS gradient        0.0076136974            0.0001000000      NO
          MAX gradient        0.0252877279            0.0003000000      NO
          RMS step            0.0397359707            0.0020000000      NO
          MAX step            0.1249602222            0.0040000000      NO
          ........................................................
          Max(Bonds)      0.0305      Max(Angles)    5.14
          Max(Dihed)        7.16      Max(Improp)    0.00
          ---------------------------------------------------------------------

The optimization has not yet converged - more geometry cycles are needed


    ---------------------------------------------------------------------------
                         Redundant Internal Coordinates
                            (Angstroem and degrees)

        Definition                    Value    dE/dq     Step     New-Value
    ----------------------------------------------------------------------------
     1. B(C   1,C   0)                1.5207 -0.000192  0.0003    1.5209   
     2. B(C   2,C   0)                1.4979 -0.025288  0.0305    1.5284   
     3. B(C   3,C   0)                1.5035 -0.024193  0.0297    1.5332   
     4. B(H   4,C   0)                1.1189  0.005568 -0.0086    1.1104   
     5. B(H   5,C   1)                1.1060  0.000741 -0.0011    1.1049   
     6. B(H   6,C   1)                1.1194  0.009798 -0.0152    1.1043   
     7. B(H   7,C   2)                1.1077  0.001778 -0.0026    1.1050   
     8. B(H   8,C   2)                1.1193  0.005721 -0.0088    1.1104   
     9. B(H   9,C   2)                1.0981 -0.004155  0.0060    1.1041   
    10. B(H  10,C   3)                1.1048  0.000655 -0.0010    1.1038   
    11. B(H  11,C   3)                1.1195  0.007068 -0.0109    1.1086   
    12. B(H  12,C   3)                1.1161  0.007009 -0.0107    1.1054   
    13. A(C   1,C   0,H   4)          105.12 -0.002551    1.17    106.29   
    14. A(C   2,C   0,H   4)          106.58 -0.000831    0.27    106.85   
    15. A(C   1,C   0,C   2)          112.76  0.005730   -1.54    111.22   
    16. A(C   1,C   0,C   3)          111.95 -0.002732    0.27    112.22   
    17. A(C   2,C   0,C   3)          113.10 -0.000815   -0.29    112.81   
    18. A(C   3,C   0,H   4)          106.65  0.000863    0.37    107.02   
    19. A(H   5,C   1,H   6)          112.41  0.007674    2.09    114.50   
    20. A(C   0,C   1,H   6)          109.65 -0.019610    5.14    114.80   
    21. A(C   0,C   1,H   5)          112.19 -0.013272    3.98    116.17   
    22. A(H   7,C   2,H   9)          114.41  0.008142   -2.51    111.89   
    23. A(C   0,C   2,H   9)          114.73  0.005718   -1.32    113.41   
    24. A(H   7,C   2,H   8)          105.16  0.002241    0.70    105.86   
    25. A(C   0,C   2,H   8)          106.59 -0.006712    1.70    108.29   
    26. A(H   8,C   2,H   9)          106.64  0.000242    0.29    106.93   
    27. A(C   0,C   2,H   7)          108.56 -0.010590    1.59    110.16   
    28. A(H  11,C   3,H  12)          110.02  0.006260   -1.21    108.81   
    29. A(H  10,C   3,H  12)          112.98  0.008425   -2.17    110.82   
    30. A(C   0,C   3,H  12)          112.62  0.001604   -0.54    112.08   
    31. A(H  10,C   3,H  11)          106.86  0.004736    0.11    106.97   
    32. A(C   0,C   3,H  11)          106.43 -0.011700    2.32    108.75   
    33. A(C   0,C   3,H  10)          107.56 -0.010558    1.82    109.38   
    34. D(H   6,C   1,C   0,C   3)    159.35  0.005435   -2.37    156.98   
    35. D(H   6,C   1,C   0,H   4)     43.95  0.007218   -3.62     40.34   
    36. D(H   6,C   1,C   0,C   2)    -71.77  0.006854   -3.86    -75.62   
    37. D(H   5,C   1,C   0,H   4)    169.60 -0.007350    5.92    175.52   
    38. D(H   5,C   1,C   0,C   2)     53.88 -0.007714    5.68     59.56   
    39. D(H   5,C   1,C   0,C   3)    -75.00 -0.009133    7.16    -67.84   
    40. D(H   7,C   2,C   0,C   1)     60.79  0.003709   -1.19     59.61   
    41. D(H   9,C   2,C   0,C   1)    -68.59 -0.002849    1.94    -66.65   
    42. D(H   8,C   2,C   0,H   4)     58.78 -0.001338    0.44     59.21   
    43. D(H   8,C   2,C   0,C   1)    173.61 -0.001914    1.20    174.81   
    44. D(H   7,C   2,C   0,H   4)    -54.05  0.004285   -1.95    -55.99   
    45. D(H   7,C   2,C   0,C   3)   -170.92  0.004205   -2.40   -173.33   
    46. D(H   9,C   2,C   0,C   3)     59.69 -0.002353    0.72     60.41   
    47. D(H   9,C   2,C   0,H   4)    176.57 -0.002272    1.18    177.75   
    48. D(H   8,C   2,C   0,C   3)    -58.10 -0.001419   -0.02    -58.12   
    49. D(H  12,C   3,C   0,H   4)   -177.35  0.000202   -0.33   -177.67   
    50. D(H  12,C   3,C   0,C   1)     68.19  0.004146   -2.07     66.11   
    51. D(H  11,C   3,C   0,H   4)    -56.71  0.001159   -0.61    -57.32   
    52. D(H  11,C   3,C   0,C   2)     60.12  0.000240   -0.21     59.91   
    53. D(H  11,C   3,C   0,C   1)   -171.18  0.005103   -2.35   -173.53   
    54. D(H  10,C   3,C   0,H   4)     57.51 -0.003934    1.48     59.00   
    55. D(H  12,C   3,C   0,C   2)    -60.51 -0.000717    0.07    -60.44   
    56. D(H  10,C   3,C   0,C   2)    174.35 -0.004853    1.88    176.23   
    57. D(H  10,C   3,C   0,C   1)    -56.95  0.000010   -0.26    -57.21   
    ----------------------------------------------------------------------------

Time needed for optimization step       :     3.40 sec

         *************************************************************
         *                GEOMETRY OPTIMIZATION CYCLE   2            *
         *************************************************************
---------------------------------
CARTESIAN COORDINATES (ANGSTROEM)
---------------------------------
  C      0.076842   -0.023683   -0.335711
  C     -1.175638   -0.854409   -0.102602
  C      1.289475   -0.645102    0.356609
  C     -0.128081    1.449961    0.034503
  H      0.275765   -0.059821   -1.427499
  H     -1.475928   -0.986411    0.952513
  H     -1.226969   -1.781100   -0.701002
  H      1.466611   -1.665118   -0.029757
  H      2.188844   -0.056090    0.078640
  H      1.221842   -0.628354    1.458514
  H     -0.973642    1.858576   -0.545539
  H      0.773787    2.020769   -0.265160
  H     -0.292785    1.587000    1.118898

----------------------------
CARTESIAN COORDINATES (A.U.)
----------------------------
  NO LB      ZA    FRAG     MASS         X           Y           Z
   0 C     6.0000    0    12.011    0.145210   -0.044753   -0.634402
   1 C     6.0000    0    12.011   -2.221635   -1.614599   -0.193889
   2 C     6.0000    0    12.011    2.436754   -1.219066    0.673893
   3 C     6.0000    0    12.011   -0.242039    2.740029    0.065201
   4 H     1.0000    0     1.008    0.521120   -0.113044   -2.697583
   5 H     1.0000    0     1.008   -2.789100   -1.864046    1.799989
   6 H     1.0000    0     1.008   -2.318635   -3.365790   -1.324702
   7 H     1.0000    0     1.008    2.771493   -3.146617   -0.056233
   8 H     1.0000    0     1.008    4.136315   -0.105996    0.148608
   9 H     1.0000    0     1.008    2.308946   -1.187416    2.756193
  10 H     1.0000    0     1.008   -1.839917    3.512200   -1.030919
  11 H     1.0000    0     1.008    1.462246    3.818701   -0.501080
  12 H     1.0000    0     1.008   -0.553284    2.998995    2.114411

--------------------------------
INTERNAL COORDINATES (ANGSTROEM)
--------------------------------
 C      0   0   0     0.000000000000     0.00000000     0.00000000
 C      1   0   0     1.520905582561     0.00000000     0.00000000
 C      1   2   0     1.528380584027   111.21529320     0.00000000
 C      1   2   3     1.533191759204   112.20443906   232.60031588
 H      1   2   3     1.110350201188   106.28797913   115.94743809
 H      2   1   3     1.104928234951   115.81212224    59.72684777
 H      2   1   3     1.104297699437   114.43002261   284.22167845
 H      3   1   2     1.105028549547   110.12751887    59.58624092
 H      3   1   2     1.110434865832   108.27297911   174.82512744
 H      3   1   2     1.104106449073   113.40977978   293.33732863
 H      4   1   2     1.103806146245   109.34820788   302.80756951
 H      4   1   2     1.108596785189   108.71678232   186.44216635
 H      4   1   2     1.105359824250   112.08389620    66.11042967

---------------------------
INTERNAL COORDINATES (A.U.)
---------------------------
 C      0   0   0     0.000000000000     0.00000000     0.00000000
 C      1   0   0     2.874095026592     0.00000000     0.00000000
 C      1   2   0     2.888220732214   111.21529320     0.00000000
 C      1   2   3     2.897312535681   112.20443906   232.60031588
 H      1   2   3     2.098257792989   106.28797913   115.94743809
 H      2   1   3     2.088011761695   115.81212224    59.72684777
 H      2   1   3     2.086820222256   114.43002261   284.22167845
 H      3   1   2     2.088201328809   110.12751887    59.58624092
 H      3   1   2     2.098417785980   108.27297911   174.82512744
 H      3   1   2     2.086458811444   113.40977978   293.33732863
 H      4   1   2     2.085891321343   109.34820788   302.80756951
 H      4   1   2     2.094944316953   108.71678232   186.44216635
 H      4   1   2     2.088827347272   112.08389620    66.11042967


Diagonalization of the overlap matrix:
Smallest eigenvalue                        ... 2.453e-03
Time for diagonalization                   ...    0.001 sec
Threshold for overlap eigenvalues          ... 1.000e-08
Number of eigenvalues below threshold      ... 0
Time for construction of square roots      ...    7.690 sec
Total time needed                          ...    7.691 sec

-------------------
DFT GRID GENERATION
-------------------

General Integration Accuracy     IntAcc      ...  4.340
Radial Grid Type                 RadialGrid  ... Gauss-Chebyshev
Angular Grid (max. acc.)         AngularGrid ... Lebedev-110
Angular grid pruning method      GridPruning ... 3 (G Style)
Weight generation scheme         WeightScheme... Becke
Basis function cutoff            BFCut       ...    1.0000e-12
Integration weight cutoff        WCut        ...    1.0000e-14
Grids for H and He will be reduced by one unit

# of grid points (after initial pruning)     ...  13770 (   0.0 sec)
# of grid points (after weights+screening)   ...  12916 (   0.0 sec)
nearest neighbour list constructed           ...    0.0 sec
Grid point re-assignment to atoms done       ...    0.0 sec
Grid point division into batches done        ...    0.0 sec
Reduced shell lists constructed in    0.1 sec

Total number of grid points                  ...    12916
Total number of batches                      ...      209
Average number of points per batch           ...       61
Average number of grid points per atom       ...      994
Average number of shells per batch           ...    37.21 (88.61%)
Average number of basis functions per batch  ...    66.32 (89.62%)
Average number of large shells per batch     ...    32.77 (88.06%)
Average number of large basis fcns per batch ...    57.94 (87.37%)
Maximum spatial batch extension              ...  19.81, 21.09, 22.44 au
Average spatial batch extension              ...   4.10,  4.20,  3.97 au

Time for grid setup =    3.422 sec

--------------
SCF ITERATIONS
--------------
ITER       Energy         Delta-E        Max-DP      RMS-DP      [F,P]     Damp
               ***  Starting incremental Fock matrix formation  ***
  0   -157.5228918494   0.000000000000 0.00342638  0.00016237  0.0148077 0.7000
  1   -157.5235143149  -0.000622465554 0.00323118  0.00015015  0.0114621 0.7000
                               ***Turning on DIIS***
  2   -157.5239981060  -0.000483791034 0.00847077  0.00039702  0.0085141 0.0000
  3   -157.5252308381  -0.001232732120 0.00240904  0.00008811  0.0012004 0.0000
  4   -157.5252625771  -0.000031739014 0.00273826  0.00008057  0.0007717 0.0000
  5   -157.5252718446  -0.000009267486 0.00050233  0.00001870  0.0003862 0.0000
  6   -157.5252731179  -0.000001273303 0.00030014  0.00000923  0.0001064 0.0000
  7   -157.5252732789  -0.000000161071 0.00003663  0.00000168  0.0000557 0.0000
  8   -157.5252732904  -0.000000011472 0.00001401  0.00000071  0.0000189 0.0000
  9   -157.5252732931  -0.000000002666 0.00000294  0.00000014  0.0000021 0.0000
 10   -157.5252732932  -0.000000000090 0.00000133  0.00000005  0.0000013 0.0000
 11   -157.5252732932  -0.000000000024 0.00000061  0.00000003  0.0000004 0.0000
                 **** Energy Check signals convergence ****

 Fermi smearing  (ALPHA): E(HOMO(Eh)) = -0.324298 MUE = -0.081820 gap=   7.409 eV
 Fermi smearing   (BETA): E(HOMO(Eh)) = -0.321906 MUE = -0.186884 gap=   7.269 eV

N_FOD(alpha) =  0.000000
 N_FOD(beta) =  0.000000
       N_FOD =  0.000000

               *****************************************************
               *                     SUCCESS                       *
               *           SCF CONVERGED AFTER  12 CYCLES          *
               *****************************************************

Setting up the final grid:

General Integration Accuracy     IntAcc      ...  4.670
Radial Grid Type                 RadialGrid  ... Gauss-Chebyshev
Angular Grid (max. acc.)         AngularGrid ... Lebedev-302
Angular grid pruning method      GridPruning ... 3 (G Style)
Weight generation scheme         WeightScheme... Becke
Basis function cutoff            BFCut       ...    1.0000e-12
Integration weight cutoff        WCut        ...    1.0000e-14
Grids for H and He will be reduced by one unit

# of grid points (after initial pruning)     ...  55394 (   0.0 sec)
# of grid points (after weights+screening)   ...  51269 (   0.1 sec)
nearest neighbour list constructed           ...    0.0 sec
Grid point re-assignment to atoms done       ...    0.0 sec
Grid point division into batches done        ...    0.1 sec
Reduced shell lists constructed in    0.3 sec

Total number of grid points                  ...    51269
Total number of batches                      ...      808
Average number of points per batch           ...       63
Average number of grid points per atom       ...     3944
Average number of shells per batch           ...    34.81 (82.88%)
Average number of basis functions per batch  ...    61.84 (83.56%)
Average number of large shells per batch     ...    29.92 (85.95%)
Average number of large basis fcns per batch ...    52.51 (84.91%)
Maximum spatial batch extension              ...  23.60, 19.12, 17.80 au
Average spatial batch extension              ...   2.68,  2.63,  2.57 au

Final grid set up in    3.1 sec
Final integration                            ... done (  45.9 sec)
Change in XC energy                          ...     0.000167445
Integrated number of electrons               ...    32.999999892
Previous integrated no of electrons          ...    33.002104110
Total Energy       :         -157.52510585 Eh           -4286.47605 eV
  Last Energy change         ...   -9.8908e-12  Tolerance :   1.0000e-09
  Last MAX-Density change    ...    3.3305e-07  Tolerance :   1.0000e-08
             **** THE GBW FILE WAS UPDATED (orca6.gbw) ****
             **** DENSITY FILE WAS UPDATED (orca6.scfp) ****
             **** ENERGY FILE WAS UPDATED (orca6.en.tmp) ****
             **** THE GBW FILE WAS UPDATED (orca6.gbw) ****
             **** DENSITY FILE WAS UPDATED (orca6.scfp) ****
Total SCF time: 0 days 0 hours 11 min 26 sec 


-------------------------------------------------------------------------------
                          DFT DISPERSION CORRECTION                            
                                                                               
                              DFTD3 V3.1  Rev 1                                
                          USING Becke-Johnson damping                          
-------------------------------------------------------------------------------
-------------------------   ----------------
Dispersion correction           -0.014428297
-------------------------   ----------------


-------------------------   --------------------
FINAL SINGLE POINT ENERGY      -157.539534145998
-------------------------   --------------------

------------------------------------------------------------------------------
                         ORCA SCF GRADIENT CALCULATION
------------------------------------------------------------------------------

Gradient of the Kohn-Sham DFT energy:
Kohn-Sham wavefunction type      ... UKS
Hartree-Fock exchange scaling    ...    0.200
Number of operators              ...    2
Number of atoms                  ...   13
Basis set dimensions             ...   74
Integral neglect threshold       ... 1.0e-12
Integral primitive cutoff        ... 1.0e-14

Nuclear repulsion gradient       ... done
One Electron Gradient            ... done
Pre-screening matrix             ... done
Starting the two electron gradient:
Two electron gradient done
Exchange-correlation gradient    ... done
Dispersion correction            ... done

------------------
CARTESIAN GRADIENT
------------------

   1   C   :    0.018993529    0.001153721    0.007085553
   2   C   :   -0.021381749    0.008528372   -0.006372655
   3   C   :   -0.011224798   -0.004418865    0.007434625
   4   C   :   -0.006797480    0.000747619    0.006633168
   5   H   :   -0.000992563   -0.001016970   -0.001669646
   6   H   :    0.005654982   -0.003992836    0.002893096
   7   H   :    0.006595224   -0.003229591    0.000195911
   8   H   :    0.000954756    0.001997777   -0.006182549
   9   H   :    0.000159042    0.000747628   -0.002093273
  10   H   :    0.002914945    0.003708286   -0.000451146
  11   H   :    0.002001106   -0.001872619   -0.004313358
  12   H   :    0.001105356   -0.001609699   -0.003614585
  13   H   :    0.002017651   -0.000742823    0.000454858

Difference to translation invariance:
           :    0.0000000000   -0.0000000000   -0.0000000000

Norm of the cartesian gradient     ...    0.0388304743
RMS gradient                       ...    0.0062178522
MAX gradient                       ...    0.0213817491

-------
TIMINGS
-------

Total SCF gradient time            ...        3.851 sec

One electron gradient       ....       0.026 sec  (  0.7%)
Prescreening matrices       ....       0.024 sec  (  0.6%)
Two electron gradient       ....       1.355 sec  ( 35.2%)
XC gradient                 ....       2.291 sec  ( 59.5%)
------------------------------------------------------------------------------
                         ORCA GEOMETRY RELAXATION STEP
------------------------------------------------------------------------------

Reading the OPT-File                    .... done
Getting information on internals        .... done
Copying old internal coords+grads       .... done
Making the new internal coordinates     .... (new redundants).... done
Validating the new internal coordinates .... (new redundants).... done
Calculating the B-matrix                .... done
Calculating the G,G- and P matrices     .... done
Transforming gradient to internals      .... done
Projecting the internal gradient        .... done
Number of atoms                         ....  13
Number of internal coordinates          ....  57
Current Energy                          ....  -157.539534146 Eh
Current gradient norm                   ....     0.038830474 Eh/bohr
Maximum allowed component of the step   ....  0.300
Current trust radius                    ....  0.300
Updating the Hessian (BFGS)             .... done
Forming the augmented Hessian           .... done
Diagonalizing the augmented Hessian     .... done
Last element of RFO vector              ....  0.955789229
Lowest eigenvalues of augmented Hessian:
 -0.005720215  0.011253593  0.013438881  0.013976436  0.053418216
Length of the computed step             ....  0.307654264
Warning: the length of the step is outside the trust region - taking restricted step instead
The input lambda is                     ....    -0.005720
   iter:   1  x=   -0.006870  g=    4.046936 f(x)=     0.004651
   iter:   2  x=   -0.006929  g=    3.675856 f(x)=     0.000220
   iter:   3  x=   -0.006929  g=    3.658285 f(x)=     0.000001
   iter:   4  x=   -0.006929  g=    3.658243 f(x)=     0.000000
   iter:   5  x=   -0.006929  g=    3.658243 f(x)=    -0.000000
The output lambda is                    ....    -0.006929 (5 iterations)
The final length of the internal step   ....  0.300000000
Converting the step to cartesian space:
 Initial RMS(Int)=    0.0397359707
Transforming coordinates:
 Iter   0:  RMS(Cart)=    0.0457491291 RMS(Int)=    0.8173044114
 Iter   1:  RMS(Cart)=    0.0029186088 RMS(Int)=    0.0021624032
 Iter   2:  RMS(Cart)=    0.0001901180 RMS(Int)=    0.0001713980
 Iter   3:  RMS(Cart)=    0.0000172344 RMS(Int)=    0.0000134682
 Iter   4:  RMS(Cart)=    0.0000021225 RMS(Int)=    0.0000018721
 Iter   5:  RMS(Cart)=    0.0000001917 RMS(Int)=    0.0000001694
 Iter   6:  RMS(Cart)=    0.0000000262 RMS(Int)=    0.0000000226
done
Storing new coordinates                 .... done

                                .--------------------.
          ----------------------|Geometry convergence|-------------------------
          Item                value                   Tolerance       Converged
          ---------------------------------------------------------------------
          Energy change      -0.0095256985            0.0000050000      NO
          RMS gradient        0.0030222056            0.0001000000      NO
          MAX gradient        0.0080899695            0.0003000000      NO
          RMS step            0.0397359707            0.0020000000      NO
          MAX step            0.1414719862            0.0040000000      NO
          ........................................................
          Max(Bonds)      0.0170      Max(Angles)    4.31
          Max(Dihed)        8.11      Max(Improp)    0.00
          ---------------------------------------------------------------------

The optimization has not yet converged - more geometry cycles are needed


    ---------------------------------------------------------------------------
                         Redundant Internal Coordinates
                            (Angstroem and degrees)

        Definition                    Value    dE/dq     Step     New-Value
    ----------------------------------------------------------------------------
     1. B(C   1,C   0)                1.5209  0.006304 -0.0142    1.5067   
     2. B(C   2,C   0)                1.5284 -0.007123  0.0170    1.5454   
     3. B(C   3,C   0)                1.5332 -0.003319  0.0092    1.5423   
     4. B(H   4,C   0)                1.1104  0.001497 -0.0046    1.1058   
     5. B(H   5,C   1)                1.1049  0.001702 -0.0044    1.1005   
     6. B(H   6,C   1)                1.1043  0.002296 -0.0071    1.0972   
     7. B(H   7,C   2)                1.1050  0.000473 -0.0014    1.1036   
     8. B(H   8,C   2)                1.1104  0.001047 -0.0034    1.1071   
     9. B(H   9,C   2)                1.1041 -0.000573  0.0018    1.1059   
    10. B(H  10,C   3)                1.1038  0.000038 -0.0002    1.1036   
    11. B(H  11,C   3)                1.1086  0.001050 -0.0035    1.1051   
    12. B(H  12,C   3)                1.1054  0.000055 -0.0008    1.1045   
    13. A(C   1,C   0,H   4)          106.29 -0.001126    1.45    107.74   
    14. A(C   2,C   0,H   4)          106.86 -0.000417    0.39    107.25   
    15. A(C   1,C   0,C   2)          111.22  0.000783   -0.84    110.37   
    16. A(C   1,C   0,C   3)          112.20 -0.000663   -0.15    112.05   
    17. A(C   2,C   0,C   3)          112.80  0.001704   -1.18    111.61   
    18. A(C   3,C   0,H   4)          107.02 -0.000516    0.67    107.69   
    19. A(H   5,C   1,H   6)          113.86  0.003344    2.20    116.06   
    20. A(C   0,C   1,H   6)          114.43 -0.008090    4.31    118.74   
    21. A(C   0,C   1,H   5)          115.81 -0.004038    2.97    118.78   
    22. A(H   7,C   2,H   9)          111.89  0.003859   -2.67    109.22   
    23. A(C   0,C   2,H   9)          113.41  0.003809   -1.65    111.76   
    24. A(H   7,C   2,H   8)          105.80  0.000265    1.28    107.08   
    25. A(C   0,C   2,H   8)          108.27 -0.003423    1.80    110.07   
    26. A(H   8,C   2,H   9)          106.94 -0.000625    0.66    107.60   
    27. A(C   0,C   2,H   7)          110.13 -0.004270    1.09    111.22   
    28. A(H  11,C   3,H  12)          108.82  0.002284   -0.83    107.98   
    29. A(H  10,C   3,H  12)          110.82  0.003854   -2.10    108.73   
    30. A(C   0,C   3,H  12)          112.08  0.001204   -0.71    111.37   
    31. A(H  10,C   3,H  11)          106.89  0.001286    0.67    107.56   
    32. A(C   0,C   3,H  11)          108.72 -0.004602    1.88    110.59   
    33. A(C   0,C   3,H  10)          109.35 -0.004142    1.34    110.69   
    34. D(H   6,C   1,C   0,C   3)    156.82  0.002405   -1.52    155.31   
    35. D(H   6,C   1,C   0,H   4)     40.17  0.004059   -3.09     37.08   
    36. D(H   6,C   1,C   0,C   2)    -75.78  0.004799   -3.98    -79.76   
    37. D(H   5,C   1,C   0,H   4)    175.67 -0.004545    6.53    182.21   
    38. D(H   5,C   1,C   0,C   2)     59.73 -0.003805    5.64     65.37   
    39. D(H   5,C   1,C   0,C   3)    -67.67 -0.006199    8.11    -59.57   
    40. D(H   7,C   2,C   0,C   1)     59.59  0.002076   -1.11     58.48   
    41. D(H   9,C   2,C   0,C   1)    -66.66 -0.002577    2.92    -63.75   
    42. D(H   8,C   2,C   0,H   4)     59.23 -0.000650    0.31     59.54   
    43. D(H   8,C   2,C   0,C   1)    174.83 -0.001824    1.85    176.68   
    44. D(H   7,C   2,C   0,H   4)    -56.01  0.003251   -2.65    -58.66   
    45. D(H   7,C   2,C   0,C   3)   -173.34  0.003193   -3.05   -176.39   
    46. D(H   9,C   2,C   0,C   3)     60.41 -0.001461    0.97     61.38   
    47. D(H   9,C   2,C   0,H   4)    177.74 -0.001403    1.38    179.12   
    48. D(H   8,C   2,C   0,C   3)    -58.10 -0.000708   -0.09    -58.19   
    49. D(H  12,C   3,C   0,H   4)   -177.68  0.000163   -0.52   -178.19   
    50. D(H  12,C   3,C   0,C   1)     66.11  0.002196   -2.57     63.54   
    51. D(H  11,C   3,C   0,H   4)    -57.34  0.000700   -0.73    -58.08   
[...]

             **** THE GBW FILE WAS UPDATED (orca6.gbw) ****
             **** DENSITY FILE WAS UPDATED (orca6.scfp) ****
             **** ENERGY FILE WAS UPDATED (orca6.en.tmp) ****
             **** THE GBW FILE WAS UPDATED (orca6.gbw) ****
             **** DENSITY FILE WAS UPDATED (orca6.scfp) ****
----------------
ORBITAL ENERGIES
----------------
                 SPIN UP ORBITALS
  NO   OCC          E(Eh)            E(eV) 
   0   1.0000     -10.188620      -277.2465 
   1   1.0000     -10.180389      -277.0225 
   2   1.0000     -10.168839      -276.7082 
   3   1.0000     -10.168360      -276.6951 
   4   1.0000      -0.793718       -21.5982 
   5   1.0000      -0.671687       -18.2775 
   6   1.0000      -0.661495       -18.0002 
   7   1.0000      -0.549060       -14.9407 
   8   1.0000      -0.456110       -12.4114 
   9   1.0000      -0.439165       -11.9503 
  10   1.0000      -0.430681       -11.7194 
  11   1.0000      -0.382629       -10.4119 
  12   1.0000      -0.367719       -10.0061 
  13   1.0000      -0.347283        -9.4501 
  14   1.0000      -0.338357        -9.2072 
  15   1.0000      -0.332654        -9.0520 
  16   1.0000      -0.201720        -5.4891 
  17   0.0000       0.058891         1.6025 
  18   0.0000       0.105770         2.8781 
  19   0.0000       0.107450         2.9239 
  20   0.0000       0.107929         2.9369 
  21   0.0000       0.123028         3.3478 
  22   0.0000       0.129389         3.5209 
  23   0.0000       0.146182         3.9778 
  24   0.0000       0.167274         4.5517 
  25   0.0000       0.179352         4.8804 
  26   0.0000       0.208726         5.6797 
  27   0.0000       0.254849         6.9348 
  28   0.0000       0.258892         7.0448 
  29   0.0000       0.402676        10.9574 
  30   0.0000       0.423887        11.5346 
  31   0.0000       0.425314        11.5734 
  32   0.0000       0.443336        12.0638 
  33   0.0000       0.481635        13.1060 
  34   0.0000       0.496550        13.5118 
  35   0.0000       0.555128        15.1058 
  36   0.0000       0.608122        16.5478 
  37   0.0000       0.647777        17.6269 
  38   0.0000       0.653781        17.7903 
  39   0.0000       0.656484        17.8638 
  40   0.0000       0.662680        18.0324 
  41   0.0000       0.671527        18.2732 
  42   0.0000       0.693192        18.8627 
  43   0.0000       0.702579        19.1182 
  44   0.0000       0.706961        19.2374 
  45   0.0000       0.719326        19.5738 
  46   0.0000       0.730449        19.8765 
  47   0.0000       0.748959        20.3802 
  48   0.0000       0.756576        20.5875 
  49   0.0000       0.761778        20.7290 
  50   0.0000       0.875032        23.8108 
  51   0.0000       0.936791        25.4914 
  52   0.0000       1.049417        28.5561 
  53   0.0000       1.065305        28.9884 
  54   0.0000       1.396368        37.9971 
  55   0.0000       1.489244        40.5244 
  56   0.0000       1.679998        45.7151 
  57   0.0000       1.744890        47.4809 
  58   0.0000       1.765948        48.0539 
  59   0.0000       1.852522        50.4097 
  60   0.0000       1.914460        52.0951 
  61   0.0000       1.940470        52.8029 
  62   0.0000       1.954535        53.1856 
  63   0.0000       1.990346        54.1601 
  64   0.0000       2.059319        56.0369 
  65   0.0000       2.091701        56.9181 
  66   0.0000       2.145366        58.3784 
  67   0.0000       2.153707        58.6053 
  68   0.0000       2.161496        58.8173 
  69   0.0000       2.426952        66.0407 
  70   0.0000       2.442756        66.4708 
  71   0.0000       2.465319        67.0847 
  72   0.0000       2.675274        72.7979 
  73   0.0000       2.691068        73.2277 

                 SPIN DOWN ORBITALS
  NO   OCC          E(Eh)            E(eV) 
   0   1.0000     -10.189585      -277.2727 
   1   1.0000     -10.168318      -276.6940 
   2   1.0000     -10.168042      -276.6865 
   3   1.0000     -10.165919      -276.6287 
   4   1.0000      -0.786729       -21.4080 
   5   1.0000      -0.671056       -18.2604 
   6   1.0000      -0.638010       -17.3611 
   7   1.0000      -0.538949       -14.6655 
   8   1.0000      -0.450116       -12.2483 
   9   1.0000      -0.433443       -11.7946 
  10   1.0000      -0.428201       -11.6519 
  11   1.0000      -0.382101       -10.3975 
  12   1.0000      -0.365116        -9.9353 
  13   1.0000      -0.340687        -9.2706 
  14   1.0000      -0.331639        -9.0243 
  15   1.0000      -0.330203        -8.9853 
  16   0.0000      -0.045644        -1.2420 
  17   0.0000       0.061413         1.6711 
  18   0.0000       0.107361         2.9214 
  19   0.0000       0.108220         2.9448 
  20   0.0000       0.115179         3.1342 
  21   0.0000       0.126832         3.4513 
  22   0.0000       0.131502         3.5784 
  23   0.0000       0.147825         4.0225 
  24   0.0000       0.167362         4.5541 
  25   0.0000       0.180661         4.9160 
  26   0.0000       0.211731         5.7615 
  27   0.0000       0.255490         6.9522 
  28   0.0000       0.266851         7.2614 
  29   0.0000       0.404527        11.0077 
  30   0.0000       0.426119        11.5953 
  31   0.0000       0.432292        11.7633 
  32   0.0000       0.444058        12.0834 
  33   0.0000       0.500397        13.6165 
  34   0.0000       0.537539        14.6272 
  35   0.0000       0.582499        15.8506 
  36   0.0000       0.618957        16.8427 
  37   0.0000       0.649654        17.6780 
  38   0.0000       0.656508        17.8645 
  39   0.0000       0.660799        17.9812 
  40   0.0000       0.667114        18.1531 
  41   0.0000       0.681480        18.5440 
  42   0.0000       0.694105        18.8875 
  43   0.0000       0.706089        19.2137 
  44   0.0000       0.709834        19.3156 
  45   0.0000       0.719401        19.5759 
  46   0.0000       0.733287        19.9538 
  47   0.0000       0.751734        20.4557 
  48   0.0000       0.763049        20.7636 
  49   0.0000       0.768129        20.9019 
  50   0.0000       0.882798        24.0222 
  51   0.0000       0.940119        25.5819 
  52   0.0000       1.054184        28.6858 
  53   0.0000       1.069111        29.0920 
  54   0.0000       1.410357        38.3778 
  55   0.0000       1.490004        40.5451 
  56   0.0000       1.730358        47.0854 
  57   0.0000       1.747477        47.5513 
  58   0.0000       1.778887        48.4060 
  59   0.0000       1.866833        50.7991 
  60   0.0000       1.926869        52.4328 
  61   0.0000       1.953141        53.1477 
  62   0.0000       1.979532        53.8658 
  63   0.0000       2.013547        54.7914 
  64   0.0000       2.083973        56.7078 
  65   0.0000       2.100808        57.1659 
  66   0.0000       2.146230        58.4019 
  67   0.0000       2.159395        58.7601 
  68   0.0000       2.166393        58.9506 
  69   0.0000       2.436662        66.3049 
  70   0.0000       2.453551        66.7645 
  71   0.0000       2.468442        67.1697 
  72   0.0000       2.682035        72.9819 
  73   0.0000       2.692326        73.2619 

                    ********************************
                    * MULLIKEN POPULATION ANALYSIS *
                    ********************************

------------------------------------------
FOD BASED MULLIKEN REDUCED ORBITAL CHARGES
------------------------------------------
  0 C s       :    -0.000000  s :    -0.000000
      pz      :     0.000000  p :     0.000000
      px      :     0.000000
      py      :     0.000000
      dz2     :     0.000000  d :     0.000000
      dxz     :     0.000000
      dyz     :     0.000000
      dx2y2   :     0.000000
      dxy     :     0.000000
  1 C s       :    -0.000000  s :    -0.000000
      pz      :     0.000000  p :     0.000000
      px      :     0.000000
      py      :     0.000000
      dz2     :     0.000000  d :     0.000000
      dxz     :     0.000000
      dyz     :     0.000000
      dx2y2   :     0.000000
      dxy     :     0.000000
  2 C s       :    -0.000000  s :    -0.000000
      pz      :     0.000000  p :     0.000000
      px      :     0.000000
      py      :     0.000000
      dz2     :     0.000000  d :     0.000000
      dxz     :     0.000000
      dyz     :     0.000000
      dx2y2   :     0.000000
      dxy     :     0.000000
  3 C s       :    -0.000000  s :    -0.000000
      pz      :     0.000000  p :     0.000000
      px      :     0.000000
      py      :     0.000000
      dz2     :     0.000000  d :     0.000000
      dxz     :     0.000000
      dyz     :     0.000000
      dx2y2   :     0.000000
      dxy     :     0.000000
  4 H s       :     0.000000  s :     0.000000
  5 H s       :     0.000000  s :     0.000000
  6 H s       :     0.000000  s :     0.000000
  7 H s       :     0.000000  s :     0.000000
  8 H s       :     0.000000  s :     0.000000
  9 H s       :     0.000000  s :     0.000000
 10 H s       :     0.000000  s :     0.000000
 11 H s       :     0.000000  s :     0.000000
 12 H s       :     0.000000  s :     0.000000


                     *******************************
                     * LOEWDIN POPULATION ANALYSIS *
                     *******************************

-------------------------------------------
LOEWDIN ATOMIC CHARGES AND SPIN POPULATIONS
-------------------------------------------
   0 C :   -0.160437   -0.013620
   1 C :   -0.224655    0.979478
   2 C :   -0.308652    0.011234
   3 C :   -0.308703    0.017693
   4 H :    0.117313    0.053414
   5 H :    0.111464   -0.025649
   6 H :    0.112602   -0.025844
   7 H :    0.110276   -0.000375
   8 H :    0.109239    0.000191
   9 H :    0.111060    0.001206
  10 H :    0.110158   -0.000432
  11 H :    0.109320    0.001398
  12 H :    0.111017    0.001307

----------------------------------------------------
LOEWDIN REDUCED ORBITAL CHARGES AND SPIN POPULATIONS
----------------------------------------------------
CHARGE
  0 C s       :     2.876070  s :     2.876070
      pz      :     1.062738  p :     3.172641
      px      :     1.056492
      py      :     1.053410
      dz2     :     0.031645  d :     0.111726
      dxz     :     0.015043
      dyz     :     0.012683
      dx2y2   :     0.024658
      dxy     :     0.027696
  1 C s       :     3.017512  s :     3.017512
      pz      :     1.009291  p :     3.150182
      px      :     1.067372
      py      :     1.073519
      dz2     :     0.006796  d :     0.056961
      dxz     :     0.004567
      dyz     :     0.002576
      dx2y2   :     0.026123
      dxy     :     0.016899
  2 C s       :     2.957249  s :     2.957249
      pz      :     1.110981  p :     3.278749
      px      :     1.067400
      py      :     1.100368
      dz2     :     0.024154  d :     0.072654
      dxz     :     0.008326
      dyz     :     0.006881
      dx2y2   :     0.016298
      dxy     :     0.016995
  3 C s       :     2.958699  s :     2.958699
      pz      :     1.113380  p :     3.277425
      px      :     1.107080
      py      :     1.056965
      dz2     :     0.023018  d :     0.072579
      dxz     :     0.007242
      dyz     :     0.009144
      dx2y2   :     0.012507
      dxy     :     0.020668
  4 H s       :     0.882687  s :     0.882687
  5 H s       :     0.888536  s :     0.888536
  6 H s       :     0.887398  s :     0.887398
  7 H s       :     0.889724  s :     0.889724
  8 H s       :     0.890761  s :     0.890761
  9 H s       :     0.888940  s :     0.888940
 10 H s       :     0.889842  s :     0.889842
 11 H s       :     0.890680  s :     0.890680
 12 H s       :     0.888983  s :     0.888983

SPIN
  0 C s       :    -0.004867  s :    -0.004867
      pz      :    -0.007361  p :    -0.026225
      px      :    -0.011331
      py      :    -0.007534
      dz2     :     0.005926  d :     0.017473
      dxz     :     0.006980
      dyz     :     0.003271
      dx2y2   :     0.000572
      dxy     :     0.000724
  1 C s       :     0.039395  s :     0.039395
      pz      :     0.869352  p :     0.943946
      px      :     0.022438
      py      :     0.052157
      dz2     :    -0.002218  d :    -0.003864
      dxz     :     0.000041
      dyz     :    -0.000233
      dx2y2   :    -0.000789
      dxy     :    -0.000665
  2 C s       :     0.003691  s :     0.003691
      pz      :     0.000400  p :     0.007700
      px      :     0.004592
      py      :     0.002708
      dz2     :    -0.000038  d :    -0.000157
      dxz     :    -0.000084
      dyz     :     0.000088
      dx2y2   :    -0.000113
      dxy     :    -0.000009
  3 C s       :     0.006180  s :     0.006180
      pz      :     0.000565  p :     0.011599
      px      :     0.001204
      py      :     0.009830
      dz2     :    -0.000086  d :    -0.000087
      dxz     :     0.000166
      dyz     :    -0.000123
      dx2y2   :    -0.000055
      dxy     :     0.000011
  4 H s       :     0.053414  s :     0.053414
  5 H s       :    -0.025649  s :    -0.025649
  6 H s       :    -0.025844  s :    -0.025844
  7 H s       :    -0.000375  s :    -0.000375
  8 H s       :     0.000191  s :     0.000191
  9 H s       :     0.001206  s :     0.001206
 10 H s       :    -0.000432  s :    -0.000432
 11 H s       :     0.001398  s :     0.001398
 12 H s       :     0.001307  s :     0.001307


                      *****************************
                      * MAYER POPULATION ANALYSIS *
                      *****************************

  NA   - Mulliken gross atomic population
  ZA   - Total nuclear charge
  QA   - Mulliken gross atomic charge
  VA   - Mayer's total valence
  BVA  - Mayer's bonded valence
  FA   - Mayer's free valence

  ATOM       NA         ZA         QA         VA         BVA        FA
  0 C      6.0998     6.0000    -0.0998     4.1910     4.1880     0.0030
  1 C      6.2390     6.0000    -0.2390     3.8819     2.9964     0.8855
  2 C      6.2429     6.0000    -0.2429     3.9574     3.9573     0.0001
  3 C      6.2453     6.0000    -0.2453     3.9545     3.9543     0.0002
  4 H      0.9172     1.0000     0.0828     0.9339     0.9303     0.0036
  5 H      0.8990     1.0000     0.1010     0.9532     0.9504     0.0029
  6 H      0.8974     1.0000     0.1026     0.9540     0.9511     0.0029
  7 H      0.9094     1.0000     0.0906     0.9552     0.9552     0.0000
  8 H      0.9135     1.0000     0.0865     0.9584     0.9584     0.0000
  9 H      0.9079     1.0000     0.0921     0.9617     0.9616     0.0000
 10 H      0.9088     1.0000     0.0912     0.9555     0.9555     0.0000
 11 H      0.9113     1.0000     0.0887     0.9573     0.9573     0.0000
 12 H      0.9085     1.0000     0.0915     0.9627     0.9627     0.0000

  Mayer bond orders larger than 0.100000
B(  0-C ,  1-C ) :   1.0789 B(  0-C ,  2-C ) :   1.0933 B(  0-C ,  3-C ) :   1.0891 
B(  0-C ,  4-H ) :   0.8983 B(  1-C ,  5-H ) :   0.9414 B(  1-C ,  6-H ) :   0.9412 
B(  2-C ,  7-H ) :   0.9561 B(  2-C ,  8-H ) :   0.9577 B(  2-C ,  9-H ) :   0.9589 
B(  3-C , 10-H ) :   0.9577 B(  3-C , 11-H ) :   0.9571 B(  3-C , 12-H ) :   0.9588 


-------
TIMINGS
-------

Total SCF time: 0 days 0 hours 0 min 46 sec 

Total time                  ....      46.902 sec
Sum of individual times     ....      40.169 sec  ( 85.6%)

Fock matrix formation       ....      36.361 sec  ( 77.5%)
  XC integration            ....      15.041 sec  ( 41.4% of F)
    Basis function eval.    ....       0.586 sec  (  3.9% of XC)
    Density eval.           ....       0.396 sec  (  2.6% of XC)
    XC-Functional eval.     ....       0.248 sec  (  1.7% of XC)
    XC-Potential eval.      ....       0.588 sec  (  3.9% of XC)
Diagonalization             ....       0.033 sec  (  0.1%)
Density matrix formation    ....       1.311 sec  (  2.8%)
Population analysis         ....       0.736 sec  (  1.6%)
Initial guess               ....       0.003 sec  (  0.0%)
Orbital Transformation      ....       0.000 sec  (  0.0%)
Orbital Orthonormalization  ....       0.002 sec  (  0.0%)
DIIS solution               ....       0.784 sec  (  1.7%)
Grid generation             ....       0.939 sec  (  2.0%)


-------------------------------------------------------------------------------
                          DFT DISPERSION CORRECTION                            
                                                                               
                              DFTD3 V3.1  Rev 1                                
                          USING Becke-Johnson damping                          
-------------------------------------------------------------------------------
The B3LYP functional is recognized
Active option DFTDOPT                   ...         4   

molecular C6(AA) [au] = 1132.646196 


            DFT-D V3
 parameters
 s6 scaling factor         :     1.0000 
 a1 scaling factor         :     0.3981 
 s8 scaling factor         :     1.9889 
 a2 scaling factor         :     4.4211 
 ad hoc parameters k1-k3   :    16.0000     1.3333    -4.0000 

 Edisp/kcal,au: -9.020730877509  -0.014375448162 
 E6   /kcal   :  -4.465480255 
 E8   /kcal   :  -4.555250623 
 % E8         :  50.497578127 

-------------------------   ----------------
Dispersion correction           -0.014375448
-------------------------   ----------------


-------------------------   --------------------
FINAL SINGLE POINT ENERGY      -157.545288028532
-------------------------   --------------------

                                *** OPTIMIZATION RUN DONE ***

                            ***************************************
                            *     ORCA property calculations      *
                            ***************************************

                                    ---------------------
                                    Active property flags
                                    ---------------------
   (+) Dipole Moment


------------------------------------------------------------------------------
                       ORCA ELECTRIC PROPERTIES CALCULATION
------------------------------------------------------------------------------

Dipole Moment Calculation                       ... on
Quadrupole Moment Calculation                   ... off
Polarizability Calculation                      ... off
GBWName                                         ... orca6.gbw
Electron density file                           ... orca6.scfp
The origin for moment calculation is the CENTER OF MASS  = ( 0.162516, -0.067402  0.031862)

-------------
DIPOLE MOMENT
-------------
                                X             Y             Z
Electronic contribution:     -0.87247      -0.66374      -0.46847
Nuclear contribution   :      0.92389       0.69630       0.38222
                        -----------------------------------------
Total Dipole Moment    :      0.05142       0.03256      -0.08625
                        -----------------------------------------
Magnitude (a.u.)       :      0.10556
Magnitude (Debye)      :      0.26830



--------------------
Rotational spectrum 
--------------------
 
Rotational constants in cm-1:     0.278659     0.262071     0.152979 
Rotational constants in MHz :  8353.994112  7856.699923  4586.208009 

 Dipole components along the rotational axes: 
x,y,z [a.u.] :     0.001693     0.052147    -0.091760 
x,y,z [Debye]:     0.004302     0.132546    -0.233236 

 

Timings for individual modules:

Sum of individual times         ...     8854.011 sec (= 147.567 min)
GTO integral calculation        ...      234.263 sec (=   3.904 min)   2.6 %
SCF iterations                  ...     8380.457 sec (= 139.674 min)  94.7 %
SCF Gradient evaluation         ...      146.571 sec (=   2.443 min)   1.7 %
Geometry relaxation             ...       92.720 sec (=   1.545 min)   1.0 %
                             ****ORCA TERMINATED NORMALLY****
TOTAL RUN TIME: 0 days 2 hours 33 minutes 57 seconds 768 msec
