
                                 *****************
                                 * O   R   C   A *
                                 *****************

           --- An Ab Initio, DFT and Semiempirical electronic structure package ---

                  #######################################################
                  #                        -***-                        #
                  #          Department of theory and spectroscopy      #
                  #               Directorship: Frank Neese             #
                  #        Max Planck Institute fuer Kohlenforschung    #
                  #                Kaiser Wilhelm Platz 1               #
                  #                 D-45470 Muelheim/Ruhr               #
                  #                      Germany                        #
                  #                                                     #
                  #                  All rights reserved                #
                  #                        -***-                        #
                  #######################################################


                         Program Version 4.2.1 -  RELEASE  -


 With contributions from (in alphabetic order):
   Daniel Aravena         : Magnetic Suceptibility
   Michael Atanasov       : Ab Initio Ligand Field Theory (pilot matlab implementation)
   Alexander A. Auer      : GIAO ZORA, VPT2
   Ute Becker             : Parallelization
   Giovanni Bistoni       : ED, misc. LED, open-shell LED, HFLD
   Martin Brehm           : Molecular dynamics
   Dmytro Bykov           : SCF Hessian
   Vijay G. Chilkuri      : MRCI spin determinant printing, contributions to CSF-ICE
   Dipayan Datta          : RHF DLPNO-CCSD density
   Achintya Kumar Dutta   : EOM-CC, STEOM-CC
   Dmitry Ganyushin       : Spin-Orbit,Spin-Spin,Magnetic field MRCI
   Miquel Garcia          : C-PCM Hessian, Gaussian charge scheme
   Yang Guo               : DLPNO-NEVPT2, CIM, IAO-localization
   Andreas Hansen         : Spin unrestricted coupled pair/coupled cluster methods
   Benjamin Helmich-Paris : CASSCF linear response (MC-RPA)
   Lee Huntington         : MR-EOM, pCC
   Robert Izsak           : Overlap fitted RIJCOSX, COSX-SCS-MP3, EOM
   Christian Kollmar      : KDIIS, OOCD, Brueckner-CCSD(T), CCSD density
   Simone Kossmann        : Meta GGA functionals, TD-DFT gradient, OOMP2, MP2 Hessian
   Martin Krupicka        : AUTO-CI
   Lucas Lang             : DCDCAS
   Dagmar Lenk            : GEPOL surface, SMD
   Dimitrios Liakos       : Extrapolation schemes; Compound Job, initial MDCI parallelization
   Dimitrios Manganas     : Further ROCIS development; embedding schemes
   Dimitrios Pantazis     : SARC Basis sets
   Taras Petrenko         : DFT Hessian,TD-DFT gradient, ASA, ECA, R-Raman, ABS, FL, XAS/XES, NRVS
   Peter Pinski           : DLPNO-MP2, DLPNO-MP2 Gradient
   Christoph Reimann      : Effective Core Potentials
   Marius Retegan         : Local ZFS, SOC
   Christoph Riplinger    : Optimizer, TS searches, QM/MM, DLPNO-CCSD(T), (RO)-DLPNO pert. Triples
   Tobias Risthaus        : Range-separated hybrids, TD-DFT gradient, RPA, STAB
   Michael Roemelt        : Original ROCIS implementation
   Masaaki Saitow         : Open-shell DLPNO-CCSD energy and density
   Barbara Sandhoefer     : DKH picture change effects
   Avijit Sen             : IP-ROCIS
   Kantharuban Sivalingam : CASSCF convergence, NEVPT2, FIC-MRCI
   Bernardo de Souza      : ESD, SOC TD-DFT
   Georgi Stoychev        : AutoAux, RI-MP2 NMR
   Willem Van den Heuvel  : Paramagnetic NMR
   Boris Wezisla          : Elementary symmetry handling
   Frank Wennmohs         : Technical directorship


 We gratefully acknowledge several colleagues who have allowed us to
 interface, adapt or use parts of their codes:
   Stefan Grimme, W. Hujo, H. Kruse,             : VdW corrections, initial TS optimization,
                  C. Bannwarth                     DFT functionals, gCP, sTDA/sTD-DF
   Ed Valeev, F. Pavosevic, A. Kumar             : LibInt (2-el integral package), F12 methods
   Garnet Chan, S. Sharma, J. Yang, R. Olivares  : DMRG
   Ulf Ekstrom                                   : XCFun DFT Library
   Mihaly Kallay                                 : mrcc  (arbitrary order and MRCC methods)
   Andreas Klamt, Michael Diedenhofen            : otool_cosmo (COSMO solvation model)
   Jiri Pittner, Ondrej Demel                    : Mk-CCSD
   Frank Weinhold                                : gennbo (NPA and NBO analysis)
   Christopher J. Cramer and Donald G. Truhlar   : smd solvation model
   Lars Goerigk                                  : TD-DFT with DH, B97 family of functionals
   V. Asgeirsson, H. Jonsson                     : NEB implementation
   FAccTs GmbH                                   : IRC, NEB, NEB-TS, Multilevel, MM, QM/MM, CI optimization
   S Lehtola, MJT Oliveira, MAL Marques          : LibXC Library


 Your calculation uses the libint2 library for the computation of 2-el integrals
 For citations please refer to: http://libint.valeyev.net

 Your ORCA version has been built with support for libXC version: 4.2.3
 For citations please refer to: https://tddft.org/programs/libxc/

 This ORCA versions uses:
   CBLAS   interface :  Fast vector & matrix operations
   LAPACKE interface :  Fast linear algebra routines
   SCALAPACK package :  Parallel linear algebra routines


Your calculation utilizes the atom-pairwise dispersion correction
with the Becke-Johnson damping scheme (D3BJ)
Cite in your paper:
S.Grimme, S.Ehrlich, L.Goerigk, J Comput Chem, (2011), 32, 1456–1465 
S.Grimme, J.Antony, S.Ehrlich and H.Krieg, J.Chem.Phys., 132, (2010), 154104 
   

----- Orbital basis set information -----
Your calculation utilizes the basis: def2-SV(P)
   F. Weigend and R. Ahlrichs, Phys. Chem. Chem. Phys. 7, 3297 (2005).

----- AuxJ basis set information -----
Your calculation utilizes the auxiliary basis: def2/J
   F. Weigend, Phys. Chem. Chem. Phys. 8, 1057 (2006).

================================================================================
                                        WARNINGS
                       Please study these warnings very carefully!
================================================================================


WARNING: Geometry Optimization
  ===> : Switching off AutoStart
         For restart on a previous wavefunction, please use MOREAD

INFO   : the flag for use of LIBINT has been found!

================================================================================
                                       INPUT FILE
================================================================================
NAME = orca2.inp
|  1> ! UKS B3LYP def2-SV(P) def2/J D3BJ Opt
|  2> %scf Convergence VeryTight
|  3> SmearTemp 2000
|  4> maxiter 500
|  5> end
|  6> *xyz 0 2
|  7> C -0.013531 0.080692 -0.405817
|  8> C 1.100578 -0.893964 -0.035812
|  9> C 0.258437 1.320463 0.415014
| 10> C -1.378238 -0.501209 -0.149636
| 11> H 0.086033 0.318044 -1.495565
| 12> H 1.159985 -0.953932 1.066761
| 13> H 0.854804 -1.845263 -0.529144
| 14> H -0.618758 1.9544 0.57079
| 15> H 1.094952 1.851714 -0.105926
| 16> H 0.651839 1.063777 1.425385
| 17> H -1.896545 -0.692155 -1.123748
| 18> H -1.336756 -1.494497 0.355981
| 19> H -2.006439 0.232899 0.388696
| 20> *
| 21> 
| 22>                          ****END OF INPUT****
================================================================================

                       *****************************
                       * Geometry Optimization Run *
                       *****************************

Geometry optimization settings:
Update method            Update   .... BFGS
Choice of coordinates    CoordSys .... Z-matrix Internals
Initial Hessian          InHess   .... Almoef's Model

Convergence Tolerances:
Energy Change            TolE     ....  5.0000e-06 Eh
Max. Gradient            TolMAXG  ....  3.0000e-04 Eh/bohr
RMS Gradient             TolRMSG  ....  1.0000e-04 Eh/bohr
Max. Displacement        TolMAXD  ....  4.0000e-03 bohr
RMS Displacement         TolRMSD  ....  2.0000e-03 bohr
Strict Convergence                ....  False
------------------------------------------------------------------------------
                        ORCA OPTIMIZATION COORDINATE SETUP
------------------------------------------------------------------------------

The optimization will be done in new redundant internal coordinates
Making redundant internal coordinates   ...  (new redundants) done
Evaluating the initial hessian          ...  (Almloef) done
Evaluating the coordinates              ...  done
Calculating the B-matrix                .... done
Calculating the G-matrix                .... done
Diagonalizing the G-matrix              .... done
The first mode is                       ....   24
The number of degrees of freedom        ....   33

    -----------------------------------------------------------------
                    Redundant Internal Coordinates


    -----------------------------------------------------------------
         Definition                    Initial Value    Approx d2E/dq
    -----------------------------------------------------------------
      1. B(C   1,C   0)                  1.5258         0.379369   
      2. B(C   2,C   0)                  1.5115         0.399783   
      3. B(C   3,C   0)                  1.5055         0.408691   
      4. B(H   4,C   0)                  1.1197         0.322840   
      5. B(H   5,C   1)                  1.1058         0.339794   
      6. B(H   6,C   1)                  1.0994         0.347836   
      7. B(H   7,C   2)                  1.0934         0.355577   
      8. B(H   8,C   2)                  1.1195         0.323071   
      9. B(H   9,C   2)                  1.1142         0.329435   
     10. B(H  10,C   3)                  1.1198         0.322736   
     11. B(H  11,C   3)                  1.1153         0.328088   
     12. B(H  12,C   3)                  1.1061         0.339478   
     13. A(C   1,C   0,H   4)          107.8473         0.319374   
     14. A(C   2,C   0,H   4)          109.7941         0.322123   
     15. A(C   1,C   0,C   2)          105.1213         0.368567   
     16. A(C   1,C   0,C   3)          111.9450         0.369965   
     17. A(C   2,C   0,C   3)          112.8118         0.373317   
     18. A(C   3,C   0,H   4)          109.1553         0.323289   
     19. A(H   5,C   1,H   6)          114.3615         0.286649   
     20. A(C   0,C   1,H   6)          106.3003         0.323295   
     21. A(C   0,C   1,H   5)          108.4006         0.322058   
     22. A(H   7,C   2,H   9)          106.7156         0.286249   
     23. A(C   0,C   2,H   9)          111.5308         0.323192   
     24. A(H   7,C   2,H   8)          112.9921         0.285380   
     25. A(C   0,C   2,H   8)          105.7216         0.322161   
     26. A(H   8,C   2,H   9)          105.5125         0.282015   
     27. A(C   0,C   2,H   7)          114.1134         0.327275   
     28. A(H  11,C   3,H  12)          113.0521         0.284010   
     29. A(H  10,C   3,H  12)          105.8831         0.283286   
     30. A(C   0,C   3,H  12)          109.9453         0.325969   
     31. A(H  10,C   3,H  11)          105.0524         0.281791   
     32. A(C   0,C   3,H  11)          112.8073         0.324145   
     33. A(C   0,C   3,H  10)          109.7209         0.323272   
     34. D(H   6,C   1,C   0,C   3)     50.5560         0.010742   
     35. D(H   6,C   1,C   0,H   4)    -69.5350         0.010742   
     36. D(H   6,C   1,C   0,C   2)    173.3662         0.010742   
     37. D(H   5,C   1,C   0,H   4)    167.0839         0.010742   
     38. D(H   5,C   1,C   0,C   2)     49.9852         0.010742   
     39. D(H   5,C   1,C   0,C   3)    -72.8250         0.010742   
     40. D(H   7,C   2,C   0,C   1)   -157.6581         0.012681   
     41. D(H   9,C   2,C   0,C   1)    -36.6372         0.012681   
     42. D(H   8,C   2,C   0,H   4)    -38.2124         0.012681   
     43. D(H   8,C   2,C   0,C   1)     77.5515         0.012681   
     44. D(H   7,C   2,C   0,H   4)     86.5780         0.012681   
     45. D(H   7,C   2,C   0,C   3)    -35.4075         0.012681   
     46. D(H   9,C   2,C   0,C   3)     85.6134         0.012681   
     47. D(H   9,C   2,C   0,H   4)   -152.4011         0.012681   
     48. D(H   8,C   2,C   0,C   3)   -160.1978         0.012681   
     49. D(H  12,C   3,C   0,H   4)   -107.8076         0.013234   
     50. D(H  12,C   3,C   0,C   1)    132.8685         0.013234   
     51. D(H  11,C   3,C   0,H   4)    125.0006         0.013234   
     52. D(H  11,C   3,C   0,C   2)   -112.6547         0.013234   
     53. D(H  11,C   3,C   0,C   1)      5.6767         0.013234   
     54. D(H  10,C   3,C   0,H   4)      8.2556         0.013234   
     55. D(H  12,C   3,C   0,C   2)     14.5371         0.013234   
     56. D(H  10,C   3,C   0,C   2)    130.6003         0.013234   
     57. D(H  10,C   3,C   0,C   1)   -111.0683         0.013234   
    -----------------------------------------------------------------

Number of atoms                         .... 13
Number of degrees of freedom            .... 57

Time needed for optimization step       :     2.29 sec

         *************************************************************
         *                GEOMETRY OPTIMIZATION CYCLE   1            *
         *************************************************************
---------------------------------
CARTESIAN COORDINATES (ANGSTROEM)
---------------------------------
  C     -0.013531    0.080692   -0.405817
  C      1.100578   -0.893964   -0.035812
  C      0.258437    1.320463    0.415014
  C     -1.378238   -0.501209   -0.149636
  H      0.086033    0.318044   -1.495565
  H      1.159985   -0.953932    1.066761
  H      0.854804   -1.845263   -0.529144
  H     -0.618758    1.954400    0.570790
  H      1.094952    1.851714   -0.105926
  H      0.651839    1.063777    1.425385
  H     -1.896545   -0.692155   -1.123748
  H     -1.336756   -1.494497    0.355981
  H     -2.006439    0.232899    0.388696

----------------------------
CARTESIAN COORDINATES (A.U.)
----------------------------
  NO LB      ZA    FRAG     MASS         X           Y           Z
   0 C     6.0000    0    12.011   -0.025570    0.152486   -0.766883
   1 C     6.0000    0    12.011    2.079791   -1.689347   -0.067675
   2 C     6.0000    0    12.011    0.488375    2.495313    0.784263
   3 C     6.0000    0    12.011   -2.604492   -0.947148   -0.282771
   4 H     1.0000    0     1.008    0.162579    0.601016   -2.826208
   5 H     1.0000    0     1.008    2.192054   -1.802670    2.015886
   6 H     1.0000    0     1.008    1.615345   -3.487042   -0.999937
   7 H     1.0000    0     1.008   -1.169283    3.693281    1.078637
   8 H     1.0000    0     1.008    2.069159    3.499232   -0.200171
   9 H     1.0000    0     1.008    1.231797    2.010247    2.693587
  10 H     1.0000    0     1.008   -3.583951   -1.307983   -2.123576
  11 H     1.0000    0     1.008   -2.526103   -2.824190    0.672707
  12 H     1.0000    0     1.008   -3.791620    0.440115    0.734529

--------------------------------
INTERNAL COORDINATES (ANGSTROEM)
--------------------------------
 C      0   0   0     0.000000000000     0.00000000     0.00000000
 C      1   0   0     1.525810237953     0.00000000     0.00000000
 C      1   2   0     1.511543005020   105.12130362     0.00000000
 C      1   2   3     1.505543979567   111.94497505   237.18980972
 H      1   2   3     1.119731961455   107.84733190   117.09879503
 H      2   1   3     1.105799517545   108.40056599    49.98515421
 H      2   1   3     1.099432175580   106.30034026   173.36619127
 H      3   1   2     1.093441059303   114.11336044   202.34192611
 H      3   1   2     1.119537160538   105.72157426    77.55153214
 H      3   1   2     1.114227263103   111.53080745   323.36282183
 H      4   1   2     1.119819945218   109.72086947   248.93167747
 H      4   1   2     1.115343157040   112.80734756     5.67672109
 H      4   1   2     1.106052618228   109.94533839   132.86852033

---------------------------
INTERNAL COORDINATES (A.U.)
---------------------------
 C      0   0   0     0.000000000000     0.00000000     0.00000000
 C      1   0   0     2.883363482064     0.00000000     0.00000000
 C      1   2   0     2.856402319133   105.12130362     0.00000000
 C      1   2   3     2.845065803956   111.94497505   237.18980972
 H      1   2   3     2.115986750549   107.84733190   117.09879503
 H      2   1   3     2.089658247182   108.40056599    49.98515421
 H      2   1   3     2.077625714668   106.30034026   173.36619127
 H      3   1   2     2.066304145668   114.11336044   202.34192611
 H      3   1   2     2.115618630165   105.72157426    77.55153214
 H      3   1   2     2.105584378212   111.53080745   323.36282183
 H      4   1   2     2.116153015766   109.72086947   248.93167747
 H      4   1   2     2.107693112150   112.80734756     5.67672109
 H      4   1   2     2.090136538157   109.94533839   132.86852033

---------------------
BASIS SET INFORMATION
---------------------
There are 2 groups of distinct atoms

 Group   1 Type C   : 7s4p1d contracted to 3s2p1d pattern {511/31/1}
 Group   2 Type H   : 4s contracted to 2s pattern {31}

Atom   0C    basis set group =>   1
Atom   1C    basis set group =>   1
Atom   2C    basis set group =>   1
Atom   3C    basis set group =>   1
Atom   4H    basis set group =>   2
Atom   5H    basis set group =>   2
Atom   6H    basis set group =>   2
Atom   7H    basis set group =>   2
Atom   8H    basis set group =>   2
Atom   9H    basis set group =>   2
Atom  10H    basis set group =>   2
Atom  11H    basis set group =>   2
Atom  12H    basis set group =>   2
---------------------------------
AUXILIARY/J BASIS SET INFORMATION
---------------------------------
There are 2 groups of distinct atoms

 Group   1 Type C   : 12s5p4d2f1g contracted to 6s4p3d1f1g pattern {711111/2111/211/2/1}
 Group   2 Type H   : 5s2p1d contracted to 3s1p1d pattern {311/2/1}

Atom   0C    basis set group =>   1
Atom   1C    basis set group =>   1
Atom   2C    basis set group =>   1
Atom   3C    basis set group =>   1
Atom   4H    basis set group =>   2
Atom   5H    basis set group =>   2
Atom   6H    basis set group =>   2
Atom   7H    basis set group =>   2
Atom   8H    basis set group =>   2
Atom   9H    basis set group =>   2
Atom  10H    basis set group =>   2
Atom  11H    basis set group =>   2
Atom  12H    basis set group =>   2
------------------------------------------------------------------------------
                           ORCA GTO INTEGRAL CALCULATION
------------------------------------------------------------------------------

                         BASIS SET STATISTICS AND STARTUP INFO

 # of primitive gaussian shells          ...   84
 # of primitive gaussian functions       ...  132
 # of contracted shells                  ...   42
 # of contracted basis functions         ...   74
 Highest angular momentum                ...    2
 Maximum contraction depth               ...    5
 Integral package used                   ... LIBINT
 Integral threshhold            Thresh   ...  1.000e-12
 Primitive cut-off              TCut     ...  1.000e-14


------------------------------ INTEGRAL EVALUATION ----------------------------


 * One electron integrals 
 Pre-screening matrix                    ... done
 Shell pair data                         ... done (   0.000 sec)

-------------------------------------------------------------------------------
                                 ORCA SCF
-------------------------------------------------------------------------------

------------
SCF SETTINGS
------------
Hamiltonian:
 Density Functional     Method          .... DFT(GTOs)
 Exchange Functional    Exchange        .... B88
   X-Alpha parameter    XAlpha          ....  0.666667
   Becke's b parameter  XBeta           ....  0.004200
 Correlation Functional Correlation     .... LYP
 LDA part of GGA corr.  LDAOpt          .... VWN-5
 Gradients option       PostSCFGGA      .... off
 Hybrid DFT is turned on
   Fraction HF Exchange ScalHFX         ....  0.200000
   Scaling of DF-GGA-X  ScalDFX         ....  0.720000
   Scaling of DF-GGA-C  ScalDFC         ....  0.810000
   Scaling of DF-LDA-C  ScalLDAC        ....  1.000000
   Perturbative correction              ....  0.000000
   Density functional embedding theory  .... OFF
   NL short-range parameter             ....  4.800000


General Settings:
 Integral files         IntName         .... orca2
 Hartree-Fock type      HFTyp           .... UHF
 Total Charge           Charge          ....    0
 Multiplicity           Mult            ....    2
 Number of Electrons    NEL             ....   33
 Basis Dimension        Dim             ....   74
 Nuclear Repulsion      ENuc            ....    127.2798500245 Eh

Convergence Acceleration:
 DIIS                   CNVDIIS         .... on
   Start iteration      DIISMaxIt       ....    12
   Startup error        DIISStart       ....  0.200000
   # of expansion vecs  DIISMaxEq       ....     5
   Bias factor          DIISBfac        ....   1.050
   Max. coefficient     DIISMaxC        ....  10.000
 Newton-Raphson         CNVNR           .... off
 SOSCF                  CNVSOSCF        .... off
 Level Shifting         CNVShift        .... on
   Level shift para.    LevelShift      ....    0.2500
   Turn off err/grad.   ShiftErr        ....    0.0010
 Zerner damping         CNVZerner       .... off
 Static damping         CNVDamp         .... on
   Fraction old density DampFac         ....    0.7000
   Max. Damping (<1)    DampMax         ....    0.9800
   Min. Damping (>=0)   DampMin         ....    0.0000
   Turn off err/grad.   DampErr         ....    0.1000
 Fernandez-Rico         CNVRico         .... off

SCF Procedure:
 Maximum # iterations   MaxIter         ....   500
 SCF integral mode      SCFMode         .... Direct
   Integral package                     .... LIBINT
 Reset frequency        DirectResetFreq ....    20
 Integral Threshold     Thresh          ....  1.000e-12 Eh
 Primitive CutOff       TCut            ....  1.000e-14 Eh

Convergence Tolerance:
 Convergence Check Mode ConvCheckMode   .... Total+1el-Energy
 Convergence forced     ConvForced      .... 0
 Energy Change          TolE            ....  1.000e-09 Eh
 1-El. energy change                    ....  1.000e-06 Eh
 DIIS Error             TolErr          ....  1.000e-08


Diagonalization of the overlap matrix:
Smallest eigenvalue                        ... 1.797e-03
Time for diagonalization                   ...    0.001 sec
Threshold for overlap eigenvalues          ... 1.000e-08
Number of eigenvalues below threshold      ... 0
Time for construction of square roots      ...    0.486 sec
Total time needed                          ...    0.487 sec

-------------------
DFT GRID GENERATION
-------------------

General Integration Accuracy     IntAcc      ...  4.340
Radial Grid Type                 RadialGrid  ... Gauss-Chebyshev
Angular Grid (max. acc.)         AngularGrid ... Lebedev-110
Angular grid pruning method      GridPruning ... 3 (G Style)
Weight generation scheme         WeightScheme... Becke
Basis function cutoff            BFCut       ...    1.0000e-12
Integration weight cutoff        WCut        ...    1.0000e-14
Grids for H and He will be reduced by one unit

# of grid points (after initial pruning)     ...  13770 (   0.0 sec)
# of grid points (after weights+screening)   ...  12885 (   0.0 sec)
nearest neighbour list constructed           ...    0.0 sec
Grid point re-assignment to atoms done       ...    0.0 sec
Grid point division into batches done        ...    0.0 sec
Reduced shell lists constructed in    0.1 sec

Total number of grid points                  ...    12885
Total number of batches                      ...      210
Average number of points per batch           ...       61
Average number of grid points per atom       ...      991
Average number of shells per batch           ...    37.23 (88.64%)
Average number of basis functions per batch  ...    66.21 (89.48%)
Average number of large shells per batch     ...    32.79 (88.08%)
Average number of large basis fcns per batch ...    58.22 (87.93%)
Maximum spatial batch extension              ...  21.57, 21.97, 22.44 au
Average spatial batch extension              ...   4.18,  4.09,  3.94 au

Time for grid setup =    0.979 sec

------------------------------
INITIAL GUESS: MODEL POTENTIAL
------------------------------
Loading Hartree-Fock densities                     ... done
Calculating cut-offs                               ... done
Setting up the integral package                    ... done
Initializing the effective Hamiltonian             ... done
Starting the Coulomb interaction                   ... done (   0.0 sec)
Reading the grid                                   ... done
Mapping shells                                     ... done
Starting the XC term evaluation                    ... done (   0.1 sec)
  promolecular density results
     # of electrons  =     32.994049378
     EX              =    -23.184185910
     EC              =     -1.032384227
     EX+EC           =    -24.216570137
Transforming the Hamiltonian                       ... done (   0.0 sec)
Diagonalizing the Hamiltonian                      ... done (   0.0 sec)
Back transforming the eigenvectors                 ... done (   0.0 sec)
Now organizing SCF variables                       ... done
                      ------------------
                      INITIAL GUESS DONE (   1.2 sec)
                      ------------------
--------------
SCF ITERATIONS
--------------
ITER       Energy         Delta-E        Max-DP      RMS-DP      [F,P]     Damp
               ***  Starting incremental Fock matrix formation  ***
  0   -157.3568962962   0.000000000000 0.04315138  0.00208007  0.1707179 0.7000
  1   -157.4249928663  -0.068096570050 0.02648675  0.00149366  0.0874763 0.7000
                               ***Turning on DIIS***
  2   -157.4524637702  -0.027470903905 0.03707551  0.00248097  0.0318243 0.0000
  3   -157.4901252726  -0.037661502474 0.01815887  0.00104407  0.0488596 0.0000
  4   -157.5022639662  -0.012138693615 0.00594308  0.00031974  0.0091804 0.0000
  5   -157.5028819491  -0.000617982848 0.00185263  0.00011182  0.0021110 0.0000
  6   -157.5029328700  -0.000050920922 0.00144690  0.00007229  0.0006432 0.0000
  7   -157.5029433877  -0.000010517717 0.00038765  0.00001380  0.0001682 0.0000
  8   -157.5029442343  -0.000000846609 0.00014641  0.00000479  0.0000952 0.0000
  9   -157.5029443531  -0.000000118762 0.00006785  0.00000211  0.0000508 0.0000
 10   -157.5029443789  -0.000000025781 0.00002220  0.00000081  0.0000103 0.0000
 11   -157.5029443833  -0.000000004421 0.00001103  0.00000045  0.0000032 0.0000
 12   -157.5029443844  -0.000000001138 0.00000332  0.00000011  0.0000018 0.0000
 13   -157.5029443846  -0.000000000124 0.00000349  0.00000014  0.0000008 0.0000
 14   -157.5029443847  -0.000000000089 0.00000129  0.00000005  0.0000004 0.0000
 15   -157.5029443847  -0.000000000011 0.00000076  0.00000003  0.0000002 0.0000
 16   -157.5029443847   0.000000000000 0.00000015  0.00000001  0.0000001 0.0000
                 **** Energy Check signals convergence ****

 Fermi smearing  (ALPHA): E(HOMO(Eh)) = -0.316211 MUE = -0.087451 gap=   7.938 eV
 Fermi smearing   (BETA): E(HOMO(Eh)) = -0.310923 MUE = -0.188054 gap=   6.660 eV

N_FOD(alpha) =  0.000000
 N_FOD(beta) =  0.000000
       N_FOD =  0.000000

               *****************************************************
               *                     SUCCESS                       *
               *           SCF CONVERGED AFTER  17 CYCLES          *
               *****************************************************

Setting up the final grid:

General Integration Accuracy     IntAcc      ...  4.670
Radial Grid Type                 RadialGrid  ... Gauss-Chebyshev
Angular Grid (max. acc.)         AngularGrid ... Lebedev-302
Angular grid pruning method      GridPruning ... 3 (G Style)
Weight generation scheme         WeightScheme... Becke
Basis function cutoff            BFCut       ...    1.0000e-12
Integration weight cutoff        WCut        ...    1.0000e-14
Grids for H and He will be reduced by one unit

# of grid points (after initial pruning)     ...  55394 (   0.0 sec)
# of grid points (after weights+screening)   ...  51161 (   0.1 sec)
nearest neighbour list constructed           ...    0.0 sec
Grid point re-assignment to atoms done       ...    0.0 sec
Grid point division into batches done        ...    0.1 sec
Reduced shell lists constructed in    0.3 sec

Total number of grid points                  ...    51161
Total number of batches                      ...      807
Average number of points per batch           ...       63
Average number of grid points per atom       ...     3935
Average number of shells per batch           ...    35.10 (83.56%)
Average number of basis functions per batch  ...    62.43 (84.37%)
Average number of large shells per batch     ...    30.23 (86.12%)
Average number of large basis fcns per batch ...    53.25 (85.29%)
Maximum spatial batch extension              ...  19.43, 19.23, 16.76 au
Average spatial batch extension              ...   2.63,  2.66,  2.61 au

Final grid set up in    2.6 sec
Final integration                            ... done (  13.2 sec)
Change in XC energy                          ...     0.000041060
Integrated number of electrons               ...    33.000054074
Previous integrated no of electrons          ...    32.999916818

----------------
TOTAL SCF ENERGY
----------------

Total Energy       :         -157.50290332 Eh           -4285.87189 eV

Components:
Nuclear Repulsion  :          127.27985002 Eh            3463.46080 eV
Electronic Energy  :         -284.78275335 Eh           -7749.33269 eV
One Electron Energy:         -462.04583631 Eh          -12572.90640 eV
Two Electron Energy:          177.26308296 Eh            4823.57371 eV

Virial components:
Potential Energy   :         -313.38817385 Eh           -8527.72575 eV
Kinetic Energy     :          155.88527053 Eh            4241.85386 eV
Virial Ratio       :            2.01037707


DFT components:
N(Alpha)           :       17.000021691419 electrons
N(Beta)            :       16.000032382895 electrons
N(Total)           :       33.000054074314 electrons
E(X)               :      -18.884009501207 Eh       
E(C)               :       -1.220773048373 Eh       
E(XC)              :      -20.104782549579 Eh       
DFET-embed. en.    :        0.000000000000 Eh       

---------------
SCF CONVERGENCE
---------------

  Last Energy change         ...   -1.7536e-11  Tolerance :   1.0000e-09
  Last MAX-Density change    ...    1.2553e-07  Tolerance :   1.0000e-08
  Last RMS-Density change    ...    5.5497e-09  Tolerance :   1.0000e-09
  Last DIIS Error            ...    2.7915e-08  Tolerance :   1.0000e-08

             **** THE GBW FILE WAS UPDATED (orca2.gbw) ****
             **** DENSITY FILE WAS UPDATED (orca2.scfp) ****
             **** ENERGY FILE WAS UPDATED (orca2.en.tmp) ****
             **** THE GBW FILE WAS UPDATED (orca2.gbw) ****
             **** DENSITY FILE WAS UPDATED (orca2.scfp) ****
----------------
ORBITAL ENERGIES
----------------
                 SPIN UP ORBITALS
  NO   OCC          E(Eh)            E(eV) 
   0   1.0000     -10.188403      -277.2406 
   1   1.0000     -10.182743      -277.0865 
   2   1.0000     -10.173800      -276.8432 
   3   1.0000     -10.164058      -276.5781 
   4   1.0000      -0.804082       -21.8802 
   5   1.0000      -0.676679       -18.4134 
   6   1.0000      -0.660481       -17.9726 
   7   1.0000      -0.548930       -14.9371 
   8   1.0000      -0.458907       -12.4875 
   9   1.0000      -0.438017       -11.9190 
  10   1.0000      -0.424108       -11.5406 
  11   1.0000      -0.392541       -10.6816 
  12   1.0000      -0.373812       -10.1719 
  13   1.0000      -0.348331        -9.4786 
  14   1.0000      -0.324345        -8.8259 
  15   1.0000      -0.316211        -8.6045 
  16   1.0000      -0.233317        -6.3489 
  17   0.0000       0.058416         1.5896 
  18   0.0000       0.082600         2.2477 
  19   0.0000       0.100135         2.7248 
  20   0.0000       0.109116         2.9692 
  21   0.0000       0.124492         3.3876 
  22   0.0000       0.129514         3.5243 
  23   0.0000       0.151777         4.1301 
  24   0.0000       0.168051         4.5729 
  25   0.0000       0.178902         4.8682 
  26   0.0000       0.222732         6.0609 
  27   0.0000       0.257395         7.0041 
  28   0.0000       0.281763         7.6672 
  29   0.0000       0.406471        11.0606 
  30   0.0000       0.439217        11.9517 
  31   0.0000       0.440427        11.9846 
  32   0.0000       0.467680        12.7262 
  33   0.0000       0.497808        13.5461 
  34   0.0000       0.514683        14.0052 
  35   0.0000       0.589764        16.0483 
  36   0.0000       0.596116        16.2212 
  37   0.0000       0.629865        17.1395 
  38   0.0000       0.634880        17.2760 
  39   0.0000       0.658167        17.9096 
  40   0.0000       0.682498        18.5717 
  41   0.0000       0.683393        18.5961 
  42   0.0000       0.688137        18.7251 
  43   0.0000       0.701602        19.0916 
  44   0.0000       0.709802        19.3147 
  45   0.0000       0.716463        19.4960 
  46   0.0000       0.725126        19.7317 
  47   0.0000       0.744474        20.2582 
  48   0.0000       0.745848        20.2956 
  49   0.0000       0.755562        20.5599 
  50   0.0000       0.777523        21.1575 
  51   0.0000       0.918595        24.9962 
  52   0.0000       0.974398        26.5147 
  53   0.0000       1.115577        30.3564 
  54   0.0000       1.381808        37.6009 
  55   0.0000       1.394356        37.9424 
  56   0.0000       1.750382        47.6303 
  57   0.0000       1.768430        48.1214 
  58   0.0000       1.802938        49.0604 
  59   0.0000       1.833638        49.8958 
  60   0.0000       1.899937        51.6999 
  61   0.0000       1.946886        52.9775 
  62   0.0000       1.960751        53.3548 
  63   0.0000       2.036513        55.4163 
  64   0.0000       2.083086        56.6836 
  65   0.0000       2.094316        56.9892 
  66   0.0000       2.141252        58.2664 
  67   0.0000       2.156307        58.6761 
  68   0.0000       2.200292        59.8730 
  69   0.0000       2.395933        65.1966 
  70   0.0000       2.420465        65.8642 
  71   0.0000       2.489065        67.7309 
  72   0.0000       2.677372        72.8550 
  73   0.0000       2.709556        73.7308 

                 SPIN DOWN ORBITALS
  NO   OCC          E(Eh)            E(eV) 
   0   1.0000     -10.183100      -277.0962 
   1   1.0000     -10.173040      -276.8225 
   2   1.0000     -10.172507      -276.8080 
   3   1.0000     -10.163971      -276.5757 
   4   1.0000      -0.797264       -21.6946 
   5   1.0000      -0.674477       -18.3534 
   6   1.0000      -0.639411       -17.3993 
   7   1.0000      -0.542912       -14.7734 
   8   1.0000      -0.454231       -12.3603 
   9   1.0000      -0.434586       -11.8257 
  10   1.0000      -0.415318       -11.3014 
  11   1.0000      -0.389884       -10.6093 
  12   1.0000      -0.368594       -10.0299 
  13   1.0000      -0.342619        -9.3231 
  14   1.0000      -0.322447        -8.7742 
  15   1.0000      -0.310923        -8.4607 
  16   0.0000      -0.066172        -1.8006 
  17   0.0000       0.059896         1.6298 
  18   0.0000       0.084201         2.2912 
  19   0.0000       0.102767         2.7964 
  20   0.0000       0.111753         3.0410 
  21   0.0000       0.129162         3.5147 
  22   0.0000       0.132892         3.6162 
  23   0.0000       0.152470         4.1489 
  24   0.0000       0.170993         4.6530 
  25   0.0000       0.182788         4.9739 
  26   0.0000       0.226701         6.1688 
  27   0.0000       0.259666         7.0659 
  28   0.0000       0.288733         7.8568 
  29   0.0000       0.407965        11.1013 
  30   0.0000       0.443453        12.0670 
  31   0.0000       0.450424        12.2567 
  32   0.0000       0.475996        12.9525 
  33   0.0000       0.521173        14.1818 
  34   0.0000       0.548364        14.9217 
  35   0.0000       0.591239        16.0884 
  36   0.0000       0.608119        16.5478 
  37   0.0000       0.637539        17.3483 
  38   0.0000       0.643890        17.5211 
  39   0.0000       0.663670        18.0594 
  40   0.0000       0.686072        18.6690 
  41   0.0000       0.687186        18.6993 
  42   0.0000       0.692111        18.8333 
  43   0.0000       0.707501        19.2521 
  44   0.0000       0.715755        19.4767 
  45   0.0000       0.718667        19.5559 
  46   0.0000       0.728464        19.8225 
  47   0.0000       0.748346        20.3635 
  48   0.0000       0.751506        20.4495 
  49   0.0000       0.759164        20.6579 
  50   0.0000       0.783017        21.3070 
  51   0.0000       0.928056        25.2537 
  52   0.0000       0.976223        26.5644 
  53   0.0000       1.117702        30.4142 
  54   0.0000       1.391419        37.8624 
  55   0.0000       1.403645        38.1951 
  56   0.0000       1.762246        47.9532 
  57   0.0000       1.789114        48.6843 
  58   0.0000       1.816899        49.4403 
  59   0.0000       1.855901        50.5016 
  60   0.0000       1.933166        52.6041 
  61   0.0000       1.962301        53.3969 
  62   0.0000       1.977149        53.8010 
  63   0.0000       2.043613        55.6095 
  64   0.0000       2.090657        56.8897 
  65   0.0000       2.111361        57.4531 
  66   0.0000       2.151815        58.5539 
  67   0.0000       2.168146        58.9982 
  68   0.0000       2.213511        60.2327 
  69   0.0000       2.404432        65.4279 
  70   0.0000       2.430173        66.1284 
  71   0.0000       2.494120        67.8685 
  72   0.0000       2.683000        73.0082 
  73   0.0000       2.717138        73.9371 

                    ********************************
                    * MULLIKEN POPULATION ANALYSIS *
                    ********************************

------------------------------------------
FOD BASED MULLIKEN REDUCED ORBITAL CHARGES
------------------------------------------
  0 C s       :    -0.000000  s :    -0.000000
      pz      :     0.000000  p :     0.000000
      px      :     0.000000
      py      :     0.000000
      dz2     :     0.000000  d :     0.000000
      dxz     :     0.000000
      dyz     :     0.000000
      dx2y2   :     0.000000
      dxy     :     0.000000
  1 C s       :     0.000000  s :     0.000000
      pz      :     0.000000  p :     0.000000
      px      :     0.000000
      py      :     0.000000
      dz2     :     0.000000  d :     0.000000
      dxz     :    -0.000000
      dyz     :     0.000000
      dx2y2   :     0.000000
      dxy     :     0.000000
  2 C s       :    -0.000000  s :    -0.000000
      pz      :     0.000000  p :     0.000000
      px      :     0.000000
      py      :     0.000000
      dz2     :     0.000000  d :     0.000000
      dxz     :     0.000000
      dyz     :     0.000000
      dx2y2   :     0.000000
      dxy     :     0.000000
  3 C s       :    -0.000000  s :    -0.000000
      pz      :     0.000000  p :     0.000000
      px      :     0.000000
      py      :     0.000000
      dz2     :     0.000000  d :     0.000000
      dxz     :     0.000000
      dyz     :     0.000000
      dx2y2   :     0.000000
      dxy     :     0.000000
  4 H s       :     0.000000  s :     0.000000
  5 H s       :     0.000000  s :     0.000000
  6 H s       :     0.000000  s :     0.000000
  7 H s       :     0.000000  s :     0.000000
  8 H s       :     0.000000  s :     0.000000
  9 H s       :     0.000000  s :     0.000000
 10 H s       :     0.000000  s :     0.000000
 11 H s       :     0.000000  s :     0.000000
 12 H s       :     0.000000  s :     0.000000


                     *******************************
                     * LOEWDIN POPULATION ANALYSIS *
                     *******************************

-------------------------------------------
LOEWDIN ATOMIC CHARGES AND SPIN POPULATIONS
-------------------------------------------
   0 C :   -0.176655   -0.000808
   1 C :   -0.199444    0.958678
   2 C :   -0.309737    0.003413
   3 C :   -0.307953    0.042859
   4 H :    0.111581    0.011573
   5 H :    0.107164   -0.010222
   6 H :    0.102414   -0.012111
   7 H :    0.105381   -0.000392
   8 H :    0.114641    0.000210
   9 H :    0.106792   -0.000693
  10 H :    0.115424    0.001075
  11 H :    0.113837    0.001449
  12 H :    0.116556    0.004970

----------------------------------------------------
LOEWDIN REDUCED ORBITAL CHARGES AND SPIN POPULATIONS
----------------------------------------------------
CHARGE
  0 C s       :     2.874513  s :     2.874513
      pz      :     1.074527  p :     3.190240
      px      :     1.048370
      py      :     1.067342
      dz2     :     0.029227  d :     0.111902
      dxz     :     0.011503
      dyz     :     0.019297
      dx2y2   :     0.023875
      dxy     :     0.028000
  1 C s       :     3.057559  s :     3.057559
      pz      :     1.062324  p :     3.080215
      px      :     0.973139
      py      :     1.044752
      dz2     :     0.021931  d :     0.061670
      dxz     :     0.003585
      dyz     :     0.010867
      dx2y2   :     0.012414
      dxy     :     0.012873
  2 C s       :     2.956459  s :     2.956459
      pz      :     1.096122  p :     3.277663
      px      :     1.102177
      py      :     1.079364
      dz2     :     0.017998  d :     0.075615
      dxz     :     0.012323
      dyz     :     0.014081
      dx2y2   :     0.008463
      dxy     :     0.022750
  3 C s       :     2.956164  s :     2.956164
      pz      :     1.119176  p :     3.277810
      px      :     1.059242
      py      :     1.099393
      dz2     :     0.009407  d :     0.073979
      dxz     :     0.017392
      dyz     :     0.014046
      dx2y2   :     0.016857
      dxy     :     0.016277
  4 H s       :     0.888419  s :     0.888419
  5 H s       :     0.892836  s :     0.892836
  6 H s       :     0.897586  s :     0.897586
  7 H s       :     0.894619  s :     0.894619
  8 H s       :     0.885359  s :     0.885359
  9 H s       :     0.893208  s :     0.893208
 10 H s       :     0.884576  s :     0.884576
 11 H s       :     0.886163  s :     0.886163
 12 H s       :     0.883444  s :     0.883444

SPIN
  0 C s       :    -0.003001  s :    -0.003001
      pz      :    -0.003003  p :    -0.008823
      px      :     0.003180
      py      :    -0.009000
      dz2     :     0.002064  d :     0.011016
      dxz     :     0.000682
      dyz     :     0.000858
      dx2y2   :     0.006357
      dxy     :     0.001056
  1 C s       :     0.101906  s :     0.101906
      pz      :     0.117518  p :     0.860656
      px      :     0.633939
      py      :     0.109199
      dz2     :    -0.001453  d :    -0.003884
      dxz     :    -0.000421
      dyz     :    -0.000305
      dx2y2   :    -0.000497
      dxy     :    -0.001208
  2 C s       :     0.000666  s :     0.000666
      pz      :     0.001293  p :     0.003030
      px      :     0.000923
      py      :     0.000814
      dz2     :    -0.000022  d :    -0.000283
      dxz     :    -0.000091
      dyz     :    -0.000040
      dx2y2   :     0.000058
      dxy     :    -0.000188
  3 C s       :     0.013609  s :     0.013609
      pz      :     0.000869  p :     0.028710
      px      :     0.026819
      py      :     0.001022
      dz2     :    -0.000028  d :     0.000540
      dxz     :    -0.000099
      dyz     :     0.000073
      dx2y2   :     0.000100
      dxy     :     0.000493
  4 H s       :     0.011573  s :     0.011573
  5 H s       :    -0.010222  s :    -0.010222
  6 H s       :    -0.012111  s :    -0.012111
  7 H s       :    -0.000392  s :    -0.000392
  8 H s       :     0.000210  s :     0.000210
  9 H s       :    -0.000693  s :    -0.000693
 10 H s       :     0.001075  s :     0.001075
 11 H s       :     0.001449  s :     0.001449
 12 H s       :     0.004970  s :     0.004970


                      *****************************
                      * MAYER POPULATION ANALYSIS *
                      *****************************

  NA   - Mulliken gross atomic population
  ZA   - Total nuclear charge
  QA   - Mulliken gross atomic charge
  VA   - Mayer's total valence
  BVA  - Mayer's bonded valence
  FA   - Mayer's free valence

  ATOM       NA         ZA         QA         VA         BVA        FA
  0 C      6.1512     6.0000    -0.1512     4.2089     4.2067     0.0022
  1 C      6.1762     6.0000    -0.1762     3.8863     3.0150     0.8713
  2 C      6.2388     6.0000    -0.2388     3.9600     3.9600     0.0000
  3 C      6.2440     6.0000    -0.2440     3.9274     3.9260     0.0014
  4 H      0.9201     1.0000     0.0799     0.9398     0.9396     0.0002
  5 H      0.9080     1.0000     0.0920     0.9590     0.9579     0.0010
  6 H      0.9133     1.0000     0.0867     0.9467     0.9454     0.0013
  7 H      0.9100     1.0000     0.0900     0.9574     0.9574     0.0000
  8 H      0.9083     1.0000     0.0917     0.9554     0.9554     0.0000
  9 H      0.9159     1.0000     0.0841     0.9639     0.9639     0.0000
 10 H      0.9082     1.0000     0.0918     0.9529     0.9529     0.0000
 11 H      0.9041     1.0000     0.0959     0.9690     0.9689     0.0000
 12 H      0.9022     1.0000     0.0978     0.9672     0.9671     0.0001

  Mayer bond orders larger than 0.100000
B(  0-C ,  1-C ) :   1.0909 B(  0-C ,  2-C ) :   1.1095 B(  0-C ,  3-C ) :   1.0624 
B(  0-C ,  4-H ) :   0.9230 B(  1-C ,  5-H ) :   0.9400 B(  1-C ,  6-H ) :   0.9430 
B(  2-C ,  7-H ) :   0.9517 B(  2-C ,  8-H ) :   0.9595 B(  2-C ,  9-H ) :   0.9566 
B(  3-C , 10-H ) :   0.9560 B(  3-C , 11-H ) :   0.9576 B(  3-C , 12-H ) :   0.9545 


-------
TIMINGS
-------

Total SCF time: 0 days 0 hours 9 min 13 sec 

Total time                  ....     553.951 sec
Sum of individual times     ....     437.181 sec  ( 78.9%)

Fock matrix formation       ....     345.938 sec  ( 62.4%)
  XC integration            ....     178.693 sec  ( 51.7% of F)
    Basis function eval.    ....       0.827 sec  (  0.5% of XC)
    Density eval.           ....       0.586 sec  (  0.3% of XC)
    XC-Functional eval.     ....       0.352 sec  (  0.2% of XC)
    XC-Potential eval.      ....       0.878 sec  (  0.5% of XC)
Diagonalization             ....      20.395 sec  (  3.7%)
Density matrix formation    ....      40.313 sec  (  7.3%)
Population analysis         ....      16.641 sec  (  3.0%)
Initial guess               ....       0.204 sec  (  0.0%)
Orbital Transformation      ....       0.000 sec  (  0.0%)
Orbital Orthonormalization  ....       0.000 sec  (  0.0%)
DIIS solution               ....      10.116 sec  (  1.8%)
Grid generation             ....       3.574 sec  (  0.6%)


-------------------------------------------------------------------------------
                          DFT DISPERSION CORRECTION                            
                                                                               
                              DFTD3 V3.1  Rev 1                                
                          USING Becke-Johnson damping                          
-------------------------------------------------------------------------------
The B3LYP functional is recognized
Active option DFTDOPT                   ...         4   

molecular C6(AA) [au] = 1132.071269 


            DFT-D V3
 parameters
 s6 scaling factor         :     1.0000 
 a1 scaling factor         :     0.3981 
 s8 scaling factor         :     1.9889 
 a2 scaling factor         :     4.4211 
 ad hoc parameters k1-k3   :    16.0000     1.3333    -4.0000 

 Edisp/kcal,au: -9.244021171418  -0.014731283857 
 E6   /kcal   :  -4.583282259 
 E8   /kcal   :  -4.660738912 
 % E8         :  50.418955407 

-------------------------   ----------------
Dispersion correction           -0.014731284
-------------------------   ----------------


-------------------------   --------------------
FINAL SINGLE POINT ENERGY      -157.517634608750
-------------------------   --------------------

------------------------------------------------------------------------------
                         ORCA SCF GRADIENT CALCULATION
------------------------------------------------------------------------------

Gradient of the Kohn-Sham DFT energy:
Kohn-Sham wavefunction type      ... UKS
Hartree-Fock exchange scaling    ...    0.200
Number of operators              ...    2
Number of atoms                  ...   13
Basis set dimensions             ...   74
Integral neglect threshold       ... 1.0e-12
Integral primitive cutoff        ... 1.0e-14

Nuclear repulsion gradient       ... done
One Electron Gradient            ... done
Pre-screening matrix             ... done
Starting the two electron gradient:
Two electron gradient done
Exchange-correlation gradient    ... done
Dispersion correction            ... done

------------------
CARTESIAN GRADIENT
------------------

   1   C   :   -0.036320904   -0.008057088    0.005132117
   2   C   :    0.044014973    0.010613680    0.000761942
   3   C   :   -0.020779921   -0.014375050    0.000031219
   4   C   :    0.023786645    0.017044040    0.014449470
   5   H   :    0.002331899   -0.001008145   -0.007674351
   6   H   :   -0.014140503    0.004412656    0.003399542
   7   H   :   -0.019332168    0.008513333    0.001753405
   8   H   :    0.003256483   -0.009258862    0.004567092
   9   H   :    0.009282103   -0.005830816   -0.009003693
  10   H   :    0.005096791   -0.000292730    0.003486314
  11   H   :   -0.002322222    0.000147723   -0.007988770
  12   H   :    0.003826959   -0.009162420   -0.004239398
  13   H   :    0.001299864    0.007253677   -0.004674889

Difference to translation invariance:
           :   -0.0000000000   -0.0000000000    0.0000000000

Norm of the cartesian gradient     ...    0.0808007389
RMS gradient                       ...    0.0129384731
MAX gradient                       ...    0.0440149728

-------
TIMINGS
-------

Total SCF gradient time            ...        3.895 sec

One electron gradient       ....       0.026 sec  (  0.7%)
Prescreening matrices       ....       0.025 sec  (  0.6%)
Two electron gradient       ....       1.327 sec  ( 34.1%)
XC gradient                 ....       2.349 sec  ( 60.3%)
------------------------------------------------------------------------------
                         ORCA GEOMETRY RELAXATION STEP
------------------------------------------------------------------------------

Reading the OPT-File                    .... done
Getting information on internals        .... done
Copying old internal coords+grads       .... done
Making the new internal coordinates     .... (new redundants).... done
Validating the new internal coordinates .... (new redundants).... done
Calculating the B-matrix                .... done
Calculating the G,G- and P matrices     .... done
Transforming gradient to internals      .... done
Projecting the internal gradient        .... done
Number of atoms                         ....  13
Number of internal coordinates          ....  57
Current Energy                          ....  -157.517634609 Eh
Current gradient norm                   ....     0.080800739 Eh/bohr
Maximum allowed component of the step   ....  0.300
Current trust radius                    ....  0.300
Evaluating the initial hessian          ....  (Almloef) done
Projecting the Hessian                  .... done
Forming the augmented Hessian           .... done
Diagonalizing the augmented Hessian     .... done
Last element of RFO vector              ....  0.938838573
Lowest eigenvalues of augmented Hessian:
 -0.021490880  0.010871837  0.013054317  0.013445328  0.074736495
Length of the computed step             ....  0.366791030
Warning: the length of the step is outside the trust region - taking restricted step instead
The input lambda is                     ....    -0.021491
   iter:   1  x=   -0.035973  g=    3.075266 f(x)=     0.044536
   iter:   2  x=   -0.043513  g=    1.635683 f(x)=     0.012334
   iter:   3  x=   -0.044605  g=    1.286979 f(x)=     0.001405
   iter:   4  x=   -0.044622  g=    1.246976 f(x)=     0.000022
   iter:   5  x=   -0.044622  g=    1.246346 f(x)=     0.000000
   iter:   6  x=   -0.044622  g=    1.246345 f(x)=     0.000000
The output lambda is                    ....    -0.044622 (6 iterations)
The final length of the internal step   ....  0.300000000
Converting the step to cartesian space:
 Initial RMS(Int)=    0.0397359707
Transforming coordinates:
 Iter   0:  RMS(Cart)=    0.0790272264 RMS(Int)=    0.0402565769
 Iter   1:  RMS(Cart)=    0.0037403569 RMS(Int)=    0.0026086576
 Iter   2:  RMS(Cart)=    0.0002271963 RMS(Int)=    0.0001963573
 Iter   3:  RMS(Cart)=    0.0000305091 RMS(Int)=    0.0000201133
 Iter   4:  RMS(Cart)=    0.0000024949 RMS(Int)=    0.0000024326
 Iter   5:  RMS(Cart)=    0.0000002753 RMS(Int)=    0.0000001533
 Iter   6:  RMS(Cart)=    0.0000000306 RMS(Int)=    0.0000000277
done
Storing new coordinates                 .... done

                                .--------------------.
          ----------------------|Geometry convergence|-------------------------
          Item                value                   Tolerance       Converged
          ---------------------------------------------------------------------
          RMS gradient        0.0098041341            0.0001000000      NO
          MAX gradient        0.0327938554            0.0003000000      NO
          RMS step            0.0397359707            0.0020000000      NO
          MAX step            0.1125610867            0.0040000000      NO
          ........................................................
          Max(Bonds)      0.0355      Max(Angles)    6.45
          Max(Dihed)        5.56      Max(Improp)    0.00
          ---------------------------------------------------------------------

The optimization has not yet converged - more geometry cycles are needed


    ---------------------------------------------------------------------------
                         Redundant Internal Coordinates
                            (Angstroem and degrees)

        Definition                    Value    dE/dq     Step     New-Value
    ----------------------------------------------------------------------------
     1. B(C   1,C   0)                1.5258 -0.005910  0.0074    1.5332   
     2. B(C   2,C   0)                1.5115 -0.025474  0.0303    1.5419   
     3. B(C   3,C   0)                1.5055 -0.030418  0.0355    1.5411   
     4. B(H   4,C   0)                1.1197  0.007463 -0.0107    1.1090   
     5. B(H   5,C   1)                1.1058  0.002380 -0.0033    1.1025   
     6. B(H   6,C   1)                1.0994 -0.003826  0.0052    1.1046   
     7. B(H   7,C   2)                1.0934 -0.007333  0.0097    1.1031   
     8. B(H   8,C   2)                1.1195  0.008360 -0.0120    1.1075   
     9. B(H   9,C   2)                1.1142  0.005029 -0.0071    1.1071   
    10. B(H  10,C   3)                1.1198  0.007993 -0.0115    1.1083   
    11. B(H  11,C   3)                1.1153  0.006383 -0.0091    1.1063   
    12. B(H  12,C   3)                1.1061  0.001806 -0.0025    1.1036   
    13. A(C   1,C   0,H   4)          107.85  0.002259   -0.85    107.00   
    14. A(C   2,C   0,H   4)          109.79  0.006585   -1.50    108.29   
    15. A(C   1,C   0,C   2)          105.12 -0.016696    3.91    109.03   
    16. A(C   1,C   0,C   3)          111.94  0.011107   -1.67    110.27   
    17. A(C   2,C   0,C   3)          112.81  0.000786    0.37    113.18   
    18. A(C   3,C   0,H   4)          109.16 -0.004037   -0.24    108.91   
    19. A(H   5,C   1,H   6)          114.36  0.012773    0.81    115.17   
    20. A(C   0,C   1,H   6)          106.30 -0.032794    6.45    112.75   
    21. A(C   0,C   1,H   5)          108.40 -0.022704    4.85    113.25   
    22. A(H   7,C   2,H   9)          106.72 -0.000964    0.03    106.75   
    23. A(C   0,C   2,H   9)          111.53  0.002205   -0.18    111.35   
    24. A(H   7,C   2,H   8)          112.99  0.010394   -2.10    110.89   
    25. A(C   0,C   2,H   8)          105.72 -0.015242    2.50    108.22   
    26. A(H   8,C   2,H   9)          105.51  0.002736    0.16    105.67   
    27. A(C   0,C   2,H   7)          114.11  0.001332   -0.41    113.70   
    28. A(H  11,C   3,H  12)          113.05  0.008757   -2.20    110.85   
    29. A(H  10,C   3,H  12)          105.88  0.001708    0.22    106.10   
    30. A(C   0,C   3,H  12)          109.95 -0.005901    0.77    110.72   
    31. A(H  10,C   3,H  11)          105.05  0.000693    0.27    105.32   
    32. A(C   0,C   3,H  11)          112.81 -0.001714    0.09    112.90   
    33. A(C   0,C   3,H  10)          109.72 -0.003316    0.92    110.64   
    34. D(H   6,C   1,C   0,C   3)     50.56 -0.007291    3.53     54.08   
    35. D(H   6,C   1,C   0,H   4)    -69.54 -0.010499    5.39    -64.14   
    36. D(H   6,C   1,C   0,C   2)    173.37 -0.010785    5.56    178.93   
    37. D(H   5,C   1,C   0,H   4)    167.08  0.006511   -2.15    164.93   
    38. D(H   5,C   1,C   0,C   2)     49.99  0.006226   -1.98     48.00   
    39. D(H   5,C   1,C   0,C   3)    -72.83  0.009720   -4.02    -76.84   
    40. D(H   7,C   2,C   0,C   1)   -157.66 -0.000094   -1.82   -159.48   
    41. D(H   9,C   2,C   0,C   1)    -36.64  0.001283   -2.21    -38.85   
    42. D(H   8,C   2,C   0,H   4)    -38.21  0.000164   -1.09    -39.30   
    43. D(H   8,C   2,C   0,C   1)     77.55 -0.002937   -0.71     76.84   
    44. D(H   7,C   2,C   0,H   4)     86.58  0.003007   -2.19     84.39   
    45. D(H   7,C   2,C   0,C   3)    -35.41  0.002905   -1.05    -36.46   
    46. D(H   9,C   2,C   0,C   3)     85.61  0.004282   -1.45     84.17   
    47. D(H   9,C   2,C   0,H   4)   -152.40  0.004385   -2.59   -154.99   
    48. D(H   8,C   2,C   0,C   3)   -160.20  0.000062    0.05   -160.14   
    49. D(H  12,C   3,C   0,H   4)   -107.81  0.002763   -0.77   -108.57   
    50. D(H  12,C   3,C   0,C   1)    132.87 -0.004338    1.49    134.36   
    51. D(H  11,C   3,C   0,H   4)    125.00 -0.002841    1.47    126.47   
    52. D(H  11,C   3,C   0,C   2)   -112.65  0.003216   -0.37   -113.03   
    53. D(H  11,C   3,C   0,C   1)      5.68 -0.009943    3.73      9.41   
    54. D(H  10,C   3,C   0,H   4)      8.26 -0.000493    0.48      8.74   
    55. D(H  12,C   3,C   0,C   2)     14.54  0.008821   -2.61     11.92   
    56. D(H  10,C   3,C   0,C   2)    130.60  0.005565   -1.37    129.23   
    57. D(H  10,C   3,C   0,C   1)   -111.07 -0.007594    2.74   -108.33   
    ----------------------------------------------------------------------------

Time needed for optimization step       :     2.21 sec

         *************************************************************
         *                GEOMETRY OPTIMIZATION CYCLE   2            *
         *************************************************************
---------------------------------
CARTESIAN COORDINATES (ANGSTROEM)
---------------------------------
  C     -0.001255    0.082338   -0.389665
  C      1.074237   -0.954661   -0.045266
  C      0.264865    1.369834    0.415890
  C     -1.404953   -0.505720   -0.147462
  H      0.108335    0.317313   -1.467914
  H      1.234539   -1.062363    1.040212
  H      0.926712   -1.908385   -0.582638
  H     -0.619464    2.021805    0.514925
  H      1.103131    1.911487   -0.064203
  H      0.607529    1.138925    1.443003
  H     -1.916752   -0.703972   -1.110323
  H     -1.378976   -1.480097    0.375769
  H     -2.041586    0.214466    0.394649

----------------------------
CARTESIAN COORDINATES (A.U.)
----------------------------
  NO LB      ZA    FRAG     MASS         X           Y           Z
   0 C     6.0000    0    12.011   -0.002372    0.155597   -0.736359
   1 C     6.0000    0    12.011    2.030013   -1.804048   -0.085540
   2 C     6.0000    0    12.011    0.500521    2.588611    0.785919
   3 C     6.0000    0    12.011   -2.654976   -0.955673   -0.278662
   4 H     1.0000    0     1.008    0.204724    0.599635   -2.773956
   5 H     1.0000    0     1.008    2.332940   -2.007576    1.965716
   6 H     1.0000    0     1.008    1.751232   -3.606325   -1.101026
   7 H     1.0000    0     1.008   -1.170618    3.820657    0.973068
   8 H     1.0000    0     1.008    2.084615    3.612186   -0.121326
   9 H     1.0000    0     1.008    1.148064    2.152257    2.726881
  10 H     1.0000    0     1.008   -3.622136   -1.330314   -2.098206
  11 H     1.0000    0     1.008   -2.605886   -2.796979    0.710101
  12 H     1.0000    0     1.008   -3.858039    0.405283    0.745778

--------------------------------
INTERNAL COORDINATES (ANGSTROEM)
--------------------------------
 C      0   0   0     0.000000000000     0.00000000     0.00000000
 C      1   0   0     1.533186591551     0.00000000     0.00000000
 C      1   2   0     1.541876611489   109.04747382     0.00000000
 C      1   2   3     1.541052307598   110.21529387   235.17850586
 H      1   2   3     1.108984136325   107.00138438   116.93127003
 H      2   1   3     1.102523872248   112.90598541    47.79592531
 H      2   1   3     1.104591302798   112.39704245   179.11807846
 H      3   1   2     1.103137106715   113.70651933   200.49465967
 H      3   1   2     1.107505068432   108.21267430    76.81714166
 H      3   1   2     1.107112536324   111.34363956   321.11880671
 H      4   1   2     1.108306626325   110.63067801   251.65964583
 H      4   1   2     1.106280153824   112.89497678     9.39761862
 H      4   1   2     1.103564724659   110.71053456   134.34393824

---------------------------
INTERNAL COORDINATES (A.U.)
---------------------------
 C      0   0   0     0.000000000000     0.00000000     0.00000000
 C      1   0   0     2.897302770232     0.00000000     0.00000000
 C      1   2   0     2.913724528013   109.04747382     0.00000000
 C      1   2   3     2.912166819408   110.21529387   235.17850586
 H      1   2   3     2.095676304518   107.00138438   116.93127003
 H      2   1   3     2.083468174659   112.90598541    47.79592531
 H      2   1   3     2.087375052200   112.39704245   179.11807846
 H      3   1   2     2.084627019858   113.70651933   200.49465967
 H      3   1   2     2.092881271266   108.21267430    76.81714166
 H      3   1   2     2.092139493082   111.34363956   321.11880671
 H      4   1   2     2.094395996165   110.63067801   251.65964583
 H      4   1   2     2.090566518119   112.89497678     9.39761862
 H      4   1   2     2.085435100661   110.71053456   134.34393824


Diagonalization of the overlap matrix:
Smallest eigenvalue                        ... 2.156e-03
Time for diagonalization                   ...    0.001 sec
Threshold for overlap eigenvalues          ... 1.000e-08
Number of eigenvalues below threshold      ... 0
Time for construction of square roots      ...    4.884 sec
Total time needed                          ...    4.885 sec

-------------------
DFT GRID GENERATION
-------------------

General Integration Accuracy     IntAcc      ...  4.340
Radial Grid Type                 RadialGrid  ... Gauss-Chebyshev
Angular Grid (max. acc.)         AngularGrid ... Lebedev-110
Angular grid pruning method      GridPruning ... 3 (G Style)
Weight generation scheme         WeightScheme... Becke
Basis function cutoff            BFCut       ...    1.0000e-12
Integration weight cutoff        WCut        ...    1.0000e-14
Grids for H and He will be reduced by one unit

# of grid points (after initial pruning)     ...  13770 (   0.0 sec)
# of grid points (after weights+screening)   ...  12913 (   0.0 sec)
nearest neighbour list constructed           ...    0.0 sec
Grid point re-assignment to atoms done       ...    0.0 sec
Grid point division into batches done        ...    0.0 sec
Reduced shell lists constructed in    0.1 sec

Total number of grid points                  ...    12913
Total number of batches                      ...      210
Average number of points per batch           ...       61
Average number of grid points per atom       ...      993
Average number of shells per batch           ...    37.07 (88.26%)
Average number of basis functions per batch  ...    66.03 (89.23%)
Average number of large shells per batch     ...    32.48 (87.61%)
Average number of large basis fcns per batch ...    57.43 (86.97%)
Maximum spatial batch extension              ...  21.35, 21.99, 22.63 au
Average spatial batch extension              ...   4.08,  4.04,  4.00 au

Time for grid setup =    4.616 sec

--------------
SCF ITERATIONS
--------------
ITER       Energy         Delta-E        Max-DP      RMS-DP      [F,P]     Damp
               ***  Starting incremental Fock matrix formation  ***
  0   -157.5132335923   0.000000000000 0.00349237  0.00019326  0.0173932 0.7000
  1   -157.5140167926  -0.000783200287 0.00328421  0.00017674  0.0134040 0.7000
                               ***Turning on DIIS***
  2   -157.5146254092  -0.000608616635 0.00945767  0.00046369  0.0099033 0.0000
  3   -157.5161657906  -0.001540381365 0.00269320  0.00008520  0.0012769 0.0000
  4   -157.5161972333  -0.000031442748 0.00247799  0.00006842  0.0009010 0.0000
  5   -157.5162050236  -0.000007790271 0.00043372  0.00001568  0.0002773 0.0000
  6   -157.5162057657  -0.000000742113 0.00026863  0.00000758  0.0001661 0.0000
  7   -157.5162059496  -0.000000183908 0.00003611  0.00000178  0.0000333 0.0000
  8   -157.5162059596  -0.000000010005 0.00001406  0.00000069  0.0000212 0.0000
  9   -157.5162059619  -0.000000002251 0.00000409  0.00000022  0.0000054 0.0000
 10   -157.5162059621  -0.000000000226 0.00000129  0.00000007  0.0000010 0.0000
 11   -157.5162059621  -0.000000000029 0.00000064  0.00000002  0.0000005 0.0000
 12   -157.5162059621  -0.000000000004 0.00000036  0.00000001  0.0000002 0.0000
 13   -157.5162059621  -0.000000000000 0.00000017  0.00000001  0.0000001 0.0000
                 **** Energy Check signals convergence ****

 Fermi smearing  (ALPHA): E(HOMO(Eh)) = -0.321476 MUE = -0.080664 gap=   7.655 eV
 Fermi smearing   (BETA): E(HOMO(Eh)) = -0.317964 MUE = -0.186407 gap=   7.115 eV

N_FOD(alpha) =  0.000000
 N_FOD(beta) =  0.000000
       N_FOD =  0.000000

               *****************************************************
               *                     SUCCESS                       *
               *           SCF CONVERGED AFTER  14 CYCLES          *
               *****************************************************

Setting up the final grid:

General Integration Accuracy     IntAcc      ...  4.670
Radial Grid Type                 RadialGrid  ... Gauss-Chebyshev
Angular Grid (max. acc.)         AngularGrid ... Lebedev-302
Angular grid pruning method      GridPruning ... 3 (G Style)
Weight generation scheme         WeightScheme... Becke
Basis function cutoff            BFCut       ...    1.0000e-12
Integration weight cutoff        WCut        ...    1.0000e-14
Grids for H and He will be reduced by one unit

# of grid points (after initial pruning)     ...  55394 (   0.0 sec)
# of grid points (after weights+screening)   ...  51267 (   0.1 sec)
nearest neighbour list constructed           ...    0.0 sec
Grid point re-assignment to atoms done       ...    0.0 sec
Grid point division into batches done        ...    0.2 sec
Reduced shell lists constructed in    0.3 sec

Total number of grid points                  ...    51267
Total number of batches                      ...      808
Average number of points per batch           ...       63
Average number of grid points per atom       ...     3944
Average number of shells per batch           ...    34.93 (83.17%)
Average number of basis functions per batch  ...    62.07 (83.88%)
Average number of large shells per batch     ...    29.91 (85.62%)
Average number of large basis fcns per batch ...    52.55 (84.66%)
Maximum spatial batch extension              ...  18.86, 21.43, 20.48 au
Average spatial batch extension              ...   2.66,  2.67,  2.62 au

Final grid set up in    3.7 sec
Final integration                            ... done (  16.3 sec)
Change in XC energy                          ...     0.000106510
Integrated number of electrons               ...    33.000094113
Previous integrated no of electrons          ...    32.999957400
Total Energy       :         -157.51609945 Eh           -4286.23097 eV
  Last Energy change         ...    6.8781e-12  Tolerance :   1.0000e-09
  Last MAX-Density change    ...    5.8994e-08  Tolerance :   1.0000e-08
             **** THE GBW FILE WAS UPDATED (orca2.gbw) ****
             **** DENSITY FILE WAS UPDATED (orca2.scfp) ****
             **** ENERGY FILE WAS UPDATED (orca2.en.tmp) ****
             **** THE GBW FILE WAS UPDATED (orca2.gbw) ****
             **** DENSITY FILE WAS UPDATED (orca2.scfp) ****
Total SCF time: 0 days 0 hours 10 min 35 sec 


-------------------------------------------------------------------------------
                          DFT DISPERSION CORRECTION                            
                                                                               
                              DFTD3 V3.1  Rev 1                                
                          USING Becke-Johnson damping                          
-------------------------------------------------------------------------------
-------------------------   ----------------
Dispersion correction           -0.014436791
-------------------------   ----------------


-------------------------   --------------------
FINAL SINGLE POINT ENERGY      -157.530536243634
-------------------------   --------------------

------------------------------------------------------------------------------
                         ORCA SCF GRADIENT CALCULATION
------------------------------------------------------------------------------

Gradient of the Kohn-Sham DFT energy:
Kohn-Sham wavefunction type      ... UKS
Hartree-Fock exchange scaling    ...    0.200
Number of operators              ...    2
Number of atoms                  ...   13
Basis set dimensions             ...   74
Integral neglect threshold       ... 1.0e-12
Integral primitive cutoff        ... 1.0e-14

Nuclear repulsion gradient       ... done
One Electron Gradient            ... done
Pre-screening matrix             ... done
Starting the two electron gradient:
Two electron gradient done
Exchange-correlation gradient    ... done
Dispersion correction            ... done

------------------
CARTESIAN GRADIENT
------------------

   1   C   :   -0.022427673   -0.000049600   -0.004758689
   2   C   :    0.031023112    0.000901293    0.000567677
   3   C   :   -0.007820074    0.001630578    0.001385070
   4   C   :    0.008079040    0.004112288    0.009521338
   5   H   :    0.003215921   -0.001162773   -0.001527432
   6   H   :   -0.008198209    0.000720531    0.001750336
   7   H   :   -0.010548327   -0.000771746    0.000916032
   8   H   :   -0.000191837   -0.002260176    0.004759254
   9   H   :    0.003479336   -0.004003074   -0.002275060
  10   H   :    0.002844683    0.001680446   -0.000403326
  11   H   :   -0.001168852    0.000108741   -0.001261797
  12   H   :    0.000961192   -0.003940481   -0.004753246
  13   H   :    0.000751687    0.003033972   -0.003920157

Difference to translation invariance:
           :    0.0000000000   -0.0000000000   -0.0000000000

Norm of the cartesian gradient     ...    0.0454383148
RMS gradient                       ...    0.0072759535
MAX gradient                       ...    0.0310231122

-------
TIMINGS
-------

Total SCF gradient time            ...        4.980 sec

One electron gradient       ....       0.026 sec  (  0.5%)
Prescreening matrices       ....       0.025 sec  (  0.5%)
Two electron gradient       ....       1.286 sec  ( 25.8%)
XC gradient                 ....       2.731 sec  ( 54.8%)
------------------------------------------------------------------------------
                         ORCA GEOMETRY RELAXATION STEP
------------------------------------------------------------------------------

Reading the OPT-File                    .... done
Getting information on internals        .... done
Copying old internal coords+grads       .... done
Making the new internal coordinates     .... (new redundants).... done
Validating the new internal coordinates .... (new redundants).... done
Calculating the B-matrix                .... done
Calculating the G,G- and P matrices     .... done
Transforming gradient to internals      .... done
Projecting the internal gradient        .... done
Number of atoms                         ....  13
Number of internal coordinates          ....  57
Current Energy                          ....  -157.530536244 Eh
Current gradient norm                   ....     0.045438315 Eh/bohr
Maximum allowed component of the step   ....  0.300
Current trust radius                    ....  0.300
Updating the Hessian (BFGS)             .... done
Forming the augmented Hessian           .... done
Diagonalizing the augmented Hessian     .... done
Last element of RFO vector              ....  0.953497314
Lowest eigenvalues of augmented Hessian:
 -0.007092355  0.010821216  0.013029576  0.013527366  0.073477342
Length of the computed step             ....  0.316101061
Warning: the length of the step is outside the trust region - taking restricted step instead
The input lambda is                     ....    -0.007092
   iter:   1  x=   -0.009060  g=    5.040942 f(x)=     0.009920
   iter:   2  x=   -0.009309  g=    4.067291 f(x)=     0.001014
   iter:   3  x=   -0.009313  g=    3.965976 f(x)=     0.000013
   iter:   4  x=   -0.009313  g=    3.964700 f(x)=     0.000000
   iter:   5  x=   -0.009313  g=    3.964699 f(x)=     0.000000
The output lambda is                    ....    -0.009313 (5 iterations)
The final length of the internal step   ....  0.300000000
Converting the step to cartesian space:
 Initial RMS(Int)=    0.0397359707
Transforming coordinates:
 Iter   0:  RMS(Cart)=    0.0548579468 RMS(Int)=    0.8198486643
 Iter   1:  RMS(Cart)=    0.0029064789 RMS(Int)=    0.0022102478
 Iter   2:  RMS(Cart)=    0.0001651825 RMS(Int)=    0.0001534496
 Iter   3:  RMS(Cart)=    0.0000139652 RMS(Int)=    0.0000112363
 Iter   4:  RMS(Cart)=    0.0000013725 RMS(Int)=    0.0000011214
 Iter   5:  RMS(Cart)=    0.0000000857 RMS(Int)=    0.0000000874
done
Storing new coordinates                 .... done

                                .--------------------.
          ----------------------|Geometry convergence|-------------------------
          Item                value                   Tolerance       Converged
          ---------------------------------------------------------------------
          Energy change      -0.0129016349            0.0000050000      NO
          RMS gradient        0.0038845850            0.0001000000      NO
          MAX gradient        0.0122915708            0.0003000000      NO
          RMS step            0.0397359707            0.0020000000      NO
          MAX step            0.0956085078            0.0040000000      NO
          ........................................................
          Max(Bonds)      0.0198      Max(Angles)    4.95
          Max(Dihed)        5.48      Max(Improp)    0.00
          ---------------------------------------------------------------------

The optimization has not yet converged - more geometry cycles are needed


    ---------------------------------------------------------------------------
                         Redundant Internal Coordinates
                            (Angstroem and degrees)

        Definition                    Value    dE/dq     Step     New-Value
    ----------------------------------------------------------------------------
     1. B(C   1,C   0)                1.5332  0.008755 -0.0182    1.5150   
     2. B(C   2,C   0)                1.5419 -0.000944  0.0033    1.5452   
     3. B(C   3,C   0)                1.5411 -0.009175  0.0198    1.5608   
     4. B(H   4,C   0)                1.1090  0.001558 -0.0042    1.1048   
     5. B(H   5,C   1)                1.1025  0.000446 -0.0012    1.1014   
     6. B(H   6,C   1)                1.1046  0.001637 -0.0036    1.1010   
     7. B(H   7,C   2)                1.1031 -0.000758  0.0021    1.1052   
     8. B(H   8,C   2)                1.1075  0.001662 -0.0045    1.1030   
     9. B(H   9,C   2)                1.1071  0.000160 -0.0006    1.1065   
    10. B(H  10,C   3)                1.1083  0.001610 -0.0044    1.1039   
    11. B(H  11,C   3)                1.1063  0.001248 -0.0033    1.1029   
    12. B(H  12,C   3)                1.1036 -0.000374  0.0008    1.1044   
    13. A(C   1,C   0,H   4)          107.00  0.000368   -0.03    106.97   
    14. A(C   2,C   0,H   4)          108.30  0.001475   -0.69    107.60   
    15. A(C   1,C   0,C   2)          109.05 -0.004484    1.90    110.95   
    16. A(C   1,C   0,C   3)          110.22  0.002301   -0.59    109.62   
    17. A(C   2,C   0,C   3)          113.19  0.000822   -0.19    113.00   
    18. A(C   3,C   0,H   4)          108.89 -0.000491   -0.38    108.50   
    19. A(H   5,C   1,H   6)          114.46  0.006463    1.43    115.89   
    20. A(C   0,C   1,H   6)          112.40 -0.012292    4.95    117.35   
    21. A(C   0,C   1,H   5)          112.91 -0.009422    4.09    117.00   
    22. A(H   7,C   2,H   9)          106.74 -0.002315    0.52    107.26   
    23. A(C   0,C   2,H   9)          111.34  0.002280   -0.39    110.95   
    24. A(H   7,C   2,H   8)          110.89  0.004395   -1.92    108.97   
    25. A(C   0,C   2,H   8)          108.21 -0.007313    2.13    110.34   
    26. A(H   8,C   2,H   9)          105.66 -0.000100    0.92    106.57   
    27. A(C   0,C   2,H   7)          113.71  0.003072   -1.16    112.55   
    28. A(H  11,C   3,H  12)          110.85  0.004419   -2.36    108.49   
    29. A(H  10,C   3,H  12)          106.09 -0.000302    0.75    106.84   
    30. A(C   0,C   3,H  12)          110.71 -0.002734    0.51    111.22   
    31. A(H  10,C   3,H  11)          105.32 -0.001436    0.98    106.30   
    32. A(C   0,C   3,H  11)          112.89  0.000416   -0.37    112.52   
    33. A(C   0,C   3,H  10)          110.63 -0.000324    0.64    111.27   
    34. D(H   6,C   1,C   0,C   3)     54.30 -0.005498    4.68     58.98   
    35. D(H   6,C   1,C   0,H   4)    -63.95 -0.006378    5.48    -58.47   
    36. D(H   6,C   1,C   0,C   2)    179.12 -0.005991    5.35    184.47   
    37. D(H   5,C   1,C   0,H   4)    164.73  0.004463   -2.59    162.14   
    38. D(H   5,C   1,C   0,C   2)     47.80  0.004850   -2.72     45.08   
    39. D(H   5,C   1,C   0,C   3)    -77.03  0.005344   -3.39    -80.41   
    40. D(H   7,C   2,C   0,C   1)   -159.51  0.001078   -3.10   -162.61   
    41. D(H   9,C   2,C   0,C   1)    -38.88  0.001942   -3.56    -42.44   
    42. D(H   8,C   2,C   0,H   4)    -39.29 -0.000079   -2.07    -41.36   
    43. D(H   8,C   2,C   0,C   1)     76.82 -0.001247   -1.46     75.36   
    44. D(H   7,C   2,C   0,H   4)     84.39  0.002245   -3.72     80.68   
    45. D(H   7,C   2,C   0,C   3)    -36.44  0.001312   -2.60    -39.04   
    46. D(H   9,C   2,C   0,C   3)     84.18  0.002176   -3.06     81.12   
    47. D(H   9,C   2,C   0,H   4)   -154.98  0.003109   -4.17   -159.16   
[...]

             **** THE GBW FILE WAS UPDATED (orca2.gbw) ****
             **** DENSITY FILE WAS UPDATED (orca2.scfp) ****
             **** ENERGY FILE WAS UPDATED (orca2.en.tmp) ****
             **** THE GBW FILE WAS UPDATED (orca2.gbw) ****
             **** DENSITY FILE WAS UPDATED (orca2.scfp) ****
----------------
ORBITAL ENERGIES
----------------
                 SPIN UP ORBITALS
  NO   OCC          E(Eh)            E(eV) 
   0   1.0000     -10.187648      -277.2200 
   1   1.0000     -10.180585      -277.0278 
   2   1.0000     -10.170367      -276.7498 
   3   1.0000     -10.167777      -276.6793 
   4   1.0000      -0.793399       -21.5895 
   5   1.0000      -0.671366       -18.2688 
   6   1.0000      -0.661407       -17.9978 
   7   1.0000      -0.549964       -14.9653 
   8   1.0000      -0.461770       -12.5654 
   9   1.0000      -0.432456       -11.7677 
  10   1.0000      -0.422366       -11.4932 
  11   1.0000      -0.386676       -10.5220 
  12   1.0000      -0.377351       -10.2682 
  13   1.0000      -0.345026        -9.3886 
  14   1.0000      -0.339398        -9.2355 
  15   1.0000      -0.328234        -8.9317 
  16   1.0000      -0.202320        -5.5054 
  17   0.0000       0.058591         1.5943 
  18   0.0000       0.098088         2.6691 
  19   0.0000       0.105868         2.8808 
  20   0.0000       0.112857         3.0710 
  21   0.0000       0.122603         3.3362 
  22   0.0000       0.140302         3.8178 
  23   0.0000       0.145122         3.9490 
  24   0.0000       0.164288         4.4705 
  25   0.0000       0.175583         4.7779 
  26   0.0000       0.208387         5.6705 
  27   0.0000       0.245282         6.6745 
  28   0.0000       0.259804         7.0696 
  29   0.0000       0.397360        10.8127 
  30   0.0000       0.419083        11.4038 
  31   0.0000       0.425407        11.5759 
  32   0.0000       0.447525        12.1778 
  33   0.0000       0.473953        12.8969 
  34   0.0000       0.497805        13.5460 
  35   0.0000       0.574024        15.6200 
  36   0.0000       0.603213        16.4143 
  37   0.0000       0.641163        17.4469 
  38   0.0000       0.659800        17.9541 
  39   0.0000       0.663553        18.0562 
  40   0.0000       0.665024        18.0962 
  41   0.0000       0.694046        18.8860 
  42   0.0000       0.702302        19.1106 
  43   0.0000       0.706082        19.2135 
  44   0.0000       0.709522        19.3071 
  45   0.0000       0.721401        19.6303 
  46   0.0000       0.726185        19.7605 
  47   0.0000       0.736994        20.0546 
  48   0.0000       0.752138        20.4667 
  49   0.0000       0.755770        20.5655 
  50   0.0000       0.854082        23.2407 
  51   0.0000       0.935448        25.4548 
  52   0.0000       1.038063        28.2471 
  53   0.0000       1.088138        29.6098 
  54   0.0000       1.398464        38.0541 
  55   0.0000       1.519621        41.3510 
  56   0.0000       1.672141        45.5013 
  57   0.0000       1.742318        47.4109 
  58   0.0000       1.753973        47.7280 
  59   0.0000       1.818366        49.4802 
  60   0.0000       1.908670        51.9376 
  61   0.0000       1.935169        52.6586 
  62   0.0000       1.978942        53.8497 
  63   0.0000       2.016273        54.8656 
  64   0.0000       2.046299        55.6826 
  65   0.0000       2.077248        56.5248 
  66   0.0000       2.139003        58.2052 
  67   0.0000       2.146251        58.4025 
  68   0.0000       2.175776        59.2059 
  69   0.0000       2.422871        65.9297 
  70   0.0000       2.432304        66.1863 
  71   0.0000       2.497377        67.9571 
  72   0.0000       2.670853        72.6776 
  73   0.0000       2.681446        72.9658 

                 SPIN DOWN ORBITALS
  NO   OCC          E(Eh)            E(eV) 
   0   1.0000     -10.188562      -277.2449 
   1   1.0000     -10.168898      -276.7098 
   2   1.0000     -10.167597      -276.6744 
   3   1.0000     -10.166024      -276.6316 
   4   1.0000      -0.786033       -21.3890 
   5   1.0000      -0.669646       -18.2220 
   6   1.0000      -0.637617       -17.3504 
   7   1.0000      -0.541220       -14.7274 
   8   1.0000      -0.457153       -12.4398 
   9   1.0000      -0.429677       -11.6921 
  10   1.0000      -0.415573       -11.3083 
  11   1.0000      -0.383974       -10.4485 
  12   1.0000      -0.373886       -10.1739 
  13   1.0000      -0.338110        -9.2004 
  14   1.0000      -0.334960        -9.1147 
  15   1.0000      -0.325833        -8.8664 
  16   0.0000      -0.045693        -1.2434 
  17   0.0000       0.060201         1.6382 
  18   0.0000       0.099558         2.7091 
  19   0.0000       0.111543         3.0352 
  20   0.0000       0.116657         3.1744 
  21   0.0000       0.125241         3.4080 
  22   0.0000       0.141456         3.8492 
  23   0.0000       0.147251         4.0069 
  24   0.0000       0.165490         4.5032 
  25   0.0000       0.177376         4.8266 
  26   0.0000       0.211944         5.7673 
  27   0.0000       0.246982         6.7207 
  28   0.0000       0.268121         7.2959 
  29   0.0000       0.400163        10.8890 
  30   0.0000       0.423974        11.5369 
  31   0.0000       0.431836        11.7509 
  32   0.0000       0.451379        12.2827 
  33   0.0000       0.481885        13.1128 
  34   0.0000       0.546175        14.8622 
  35   0.0000       0.593433        16.1481 
  36   0.0000       0.612735        16.6734 
  37   0.0000       0.646054        17.5800 
  38   0.0000       0.664863        18.0918 
  39   0.0000       0.665673        18.1139 
  40   0.0000       0.672071        18.2880 
  41   0.0000       0.696894        18.9635 
  42   0.0000       0.704031        19.1577 
  43   0.0000       0.709760        19.3136 
  44   0.0000       0.714052        19.4304 
  45   0.0000       0.723454        19.6862 
  46   0.0000       0.730705        19.8835 
  47   0.0000       0.742908        20.2156 
  48   0.0000       0.754663        20.5354 
  49   0.0000       0.763117        20.7655 
  50   0.0000       0.860016        23.4022 
  51   0.0000       0.941571        25.6214 
  52   0.0000       1.040013        28.3002 
  53   0.0000       1.091784        29.7090 
  54   0.0000       1.409205        38.3464 
  55   0.0000       1.525101        41.5001 
  56   0.0000       1.722198        46.8634 
  57   0.0000       1.745797        47.5056 
  58   0.0000       1.777896        48.3790 
  59   0.0000       1.833001        49.8785 
  60   0.0000       1.923178        52.3323 
  61   0.0000       1.939617        52.7797 
  62   0.0000       1.987478        54.0820 
  63   0.0000       2.047568        55.7172 
  64   0.0000       2.075824        56.4860 
  65   0.0000       2.090465        56.8845 
  66   0.0000       2.142611        58.3034 
  67   0.0000       2.147567        58.4383 
  68   0.0000       2.182760        59.3959 
  69   0.0000       2.426982        66.0415 
  70   0.0000       2.444113        66.5077 
  71   0.0000       2.502111        68.0859 
  72   0.0000       2.678475        72.8850 
  73   0.0000       2.685275        73.0700 

                    ********************************
                    * MULLIKEN POPULATION ANALYSIS *
                    ********************************

------------------------------------------
FOD BASED MULLIKEN REDUCED ORBITAL CHARGES
------------------------------------------
  0 C s       :    -0.000000  s :    -0.000000
      pz      :     0.000000  p :     0.000000
      px      :     0.000000
      py      :     0.000000
      dz2     :     0.000000  d :     0.000000
      dxz     :     0.000000
      dyz     :     0.000000
      dx2y2   :     0.000000
      dxy     :     0.000000
  1 C s       :    -0.000000  s :    -0.000000
      pz      :     0.000000  p :     0.000000
      px      :     0.000000
      py      :     0.000000
      dz2     :     0.000000  d :     0.000000
      dxz     :     0.000000
      dyz     :     0.000000
      dx2y2   :     0.000000
      dxy     :     0.000000
  2 C s       :    -0.000000  s :    -0.000000
      pz      :     0.000000  p :     0.000000
      px      :     0.000000
      py      :     0.000000
      dz2     :     0.000000  d :     0.000000
      dxz     :     0.000000
      dyz     :     0.000000
      dx2y2   :     0.000000
      dxy     :     0.000000
  3 C s       :    -0.000000  s :    -0.000000
      pz      :     0.000000  p :     0.000000
      px      :     0.000000
      py      :     0.000000
      dz2     :     0.000000  d :     0.000000
      dxz     :     0.000000
      dyz     :     0.000000
      dx2y2   :     0.000000
      dxy     :     0.000000
  4 H s       :     0.000000  s :     0.000000
  5 H s       :     0.000000  s :     0.000000
  6 H s       :     0.000000  s :     0.000000
  7 H s       :     0.000000  s :     0.000000
  8 H s       :     0.000000  s :     0.000000
  9 H s       :     0.000000  s :     0.000000
 10 H s       :     0.000000  s :     0.000000
 11 H s       :     0.000000  s :     0.000000
 12 H s       :     0.000000  s :     0.000000


                     *******************************
                     * LOEWDIN POPULATION ANALYSIS *
                     *******************************

-------------------------------------------
LOEWDIN ATOMIC CHARGES AND SPIN POPULATIONS
-------------------------------------------
   0 C :   -0.159158   -0.012751
   1 C :   -0.222138    0.977890
   2 C :   -0.309016    0.007211
   3 C :   -0.307558    0.049415
   4 H :    0.113307    0.021016
   5 H :    0.113175   -0.025961
   6 H :    0.111831   -0.025642
   7 H :    0.110147   -0.000129
   8 H :    0.111802    0.000566
   9 H :    0.109112   -0.000179
  10 H :    0.110127    0.000034
  11 H :    0.109173    0.000246
  12 H :    0.109195    0.008282

----------------------------------------------------
LOEWDIN REDUCED ORBITAL CHARGES AND SPIN POPULATIONS
----------------------------------------------------
CHARGE
  0 C s       :     2.876431  s :     2.876431
      pz      :     1.069157  p :     3.171348
      px      :     1.047707
      py      :     1.054484
      dz2     :     0.027644  d :     0.111380
      dxz     :     0.009332
      dyz     :     0.021013
      dx2y2   :     0.024879
      dxy     :     0.028512
  1 C s       :     3.018068  s :     3.018068
      pz      :     1.075639  p :     3.147170
      px      :     1.028225
      py      :     1.043306
      dz2     :     0.010297  d :     0.056900
      dxz     :     0.010735
      dyz     :     0.016017
      dx2y2   :     0.010383
      dxy     :     0.009467
  2 C s       :     2.956587  s :     2.956587
      pz      :     1.097118  p :     3.279695
      px      :     1.108312
      py      :     1.074264
      dz2     :     0.024553  d :     0.072734
      dxz     :     0.003223
      dyz     :     0.012693
      dx2y2   :     0.010236
      dxy     :     0.022029
  3 C s       :     2.963808  s :     2.963808
      pz      :     1.114765  p :     3.271389
      px      :     1.052247
      py      :     1.104377
      dz2     :     0.018266  d :     0.072361
      dxz     :     0.006509
      dyz     :     0.015716
      dx2y2   :     0.011293
      dxy     :     0.020576
  4 H s       :     0.886693  s :     0.886693
  5 H s       :     0.886825  s :     0.886825
  6 H s       :     0.888169  s :     0.888169
  7 H s       :     0.889853  s :     0.889853
  8 H s       :     0.888198  s :     0.888198
  9 H s       :     0.890888  s :     0.890888
 10 H s       :     0.889873  s :     0.889873
 11 H s       :     0.890827  s :     0.890827
 12 H s       :     0.890805  s :     0.890805

SPIN
  0 C s       :    -0.005142  s :    -0.005142
      pz      :    -0.004341  p :    -0.024160
      px      :    -0.008934
      py      :    -0.010884
      dz2     :     0.002074  d :     0.016551
      dxz     :     0.001256
      dyz     :     0.001460
      dx2y2   :     0.010889
      dxy     :     0.000871
  1 C s       :     0.040378  s :     0.040378
      pz      :     0.187677  p :     0.941361
      px      :     0.481332
      py      :     0.272352
      dz2     :    -0.000611  d :    -0.003849
      dxz     :    -0.000996
      dyz     :    -0.000948
      dx2y2   :     0.000129
      dxy     :    -0.001423
  2 C s       :     0.001382  s :     0.001382
      pz      :     0.003305  p :     0.006013
      px      :     0.001237
      py      :     0.001471
      dz2     :     0.000130  d :    -0.000184
      dxz     :    -0.000033
      dyz     :    -0.000042
      dx2y2   :    -0.000046
      dxy     :    -0.000193
  3 C s       :     0.016614  s :     0.016614
      pz      :     0.002347  p :     0.032350
      px      :     0.027429
      py      :     0.002574
      dz2     :     0.000028  d :     0.000452
      dxz     :    -0.000071
      dyz     :     0.000041
      dx2y2   :    -0.000108
      dxy     :     0.000563
  4 H s       :     0.021016  s :     0.021016
  5 H s       :    -0.025961  s :    -0.025961
  6 H s       :    -0.025642  s :    -0.025642
  7 H s       :    -0.000129  s :    -0.000129
  8 H s       :     0.000566  s :     0.000566
  9 H s       :    -0.000179  s :    -0.000179
 10 H s       :     0.000034  s :     0.000034
 11 H s       :     0.000246  s :     0.000246
 12 H s       :     0.008282  s :     0.008282


                      *****************************
                      * MAYER POPULATION ANALYSIS *
                      *****************************

  NA   - Mulliken gross atomic population
  ZA   - Total nuclear charge
  QA   - Mulliken gross atomic charge
  VA   - Mayer's total valence
  BVA  - Mayer's bonded valence
  FA   - Mayer's free valence

  ATOM       NA         ZA         QA         VA         BVA        FA
  0 C      6.0899     6.0000    -0.0899     4.1896     4.1864     0.0032
  1 C      6.2378     6.0000    -0.2378     3.8897     2.9981     0.8916
  2 C      6.2454     6.0000    -0.2454     3.9534     3.9534     0.0000
  3 C      6.2357     6.0000    -0.2357     3.9382     3.9363     0.0019
  4 H      0.9310     1.0000     0.0690     0.9384     0.9378     0.0006
  5 H      0.8996     1.0000     0.1004     0.9561     0.9533     0.0028
  6 H      0.8981     1.0000     0.1019     0.9496     0.9468     0.0028
  7 H      0.9096     1.0000     0.0904     0.9576     0.9576     0.0000
  8 H      0.9057     1.0000     0.0943     0.9552     0.9552     0.0000
  9 H      0.9121     1.0000     0.0879     0.9609     0.9609     0.0000
 10 H      0.9094     1.0000     0.0906     0.9584     0.9584     0.0000
 11 H      0.9152     1.0000     0.0848     0.9652     0.9651     0.0000
 12 H      0.9105     1.0000     0.0895     0.9571     0.9569     0.0002

  Mayer bond orders larger than 0.100000
B(  0-C ,  1-C ) :   1.0819 B(  0-C ,  2-C ) :   1.0896 B(  0-C ,  3-C ) :   1.0751 
B(  0-C ,  4-H ) :   0.9112 B(  1-C ,  5-H ) :   0.9418 B(  1-C ,  6-H ) :   0.9405 
B(  2-C ,  7-H ) :   0.9589 B(  2-C ,  8-H ) :   0.9596 B(  2-C ,  9-H ) :   0.9564 
B(  3-C , 10-H ) :   0.9597 B(  3-C , 11-H ) :   0.9576 B(  3-C , 12-H ) :   0.9536 


-------
TIMINGS
-------

Total SCF time: 0 days 0 hours 1 min 25 sec 

Total time                  ....      85.288 sec
Sum of individual times     ....      67.989 sec  ( 79.7%)

Fock matrix formation       ....      53.925 sec  ( 63.2%)
  XC integration            ....      30.927 sec  ( 57.4% of F)
    Basis function eval.    ....       0.476 sec  (  1.5% of XC)
    Density eval.           ....       0.327 sec  (  1.1% of XC)
    XC-Functional eval.     ....       0.203 sec  (  0.7% of XC)
    XC-Potential eval.      ....       0.470 sec  (  1.5% of XC)
Diagonalization             ....       0.232 sec  (  0.3%)
Density matrix formation    ....       6.434 sec  (  7.5%)
Population analysis         ....       3.435 sec  (  4.0%)
Initial guess               ....       0.003 sec  (  0.0%)
Orbital Transformation      ....       0.000 sec  (  0.0%)
Orbital Orthonormalization  ....       0.002 sec  (  0.0%)
DIIS solution               ....       1.069 sec  (  1.3%)
Grid generation             ....       2.891 sec  (  3.4%)


-------------------------------------------------------------------------------
                          DFT DISPERSION CORRECTION                            
                                                                               
                              DFTD3 V3.1  Rev 1                                
                          USING Becke-Johnson damping                          
-------------------------------------------------------------------------------
The B3LYP functional is recognized
Active option DFTDOPT                   ...         4   

molecular C6(AA) [au] = 1132.636816 


            DFT-D V3
 parameters
 s6 scaling factor         :     1.0000 
 a1 scaling factor         :     0.3981 
 s8 scaling factor         :     1.9889 
 a2 scaling factor         :     4.4211 
 ad hoc parameters k1-k3   :    16.0000     1.3333    -4.0000 

 Edisp/kcal,au: -9.029778766284  -0.014389866889 
 E6   /kcal   :  -4.469509870 
 E8   /kcal   :  -4.560268896 
 % E8         :  50.502553987 

-------------------------   ----------------
Dispersion correction           -0.014389867
-------------------------   ----------------


-------------------------   --------------------
FINAL SINGLE POINT ENERGY      -157.545016798562
-------------------------   --------------------

                                *** OPTIMIZATION RUN DONE ***

                            ***************************************
                            *     ORCA property calculations      *
                            ***************************************

                                    ---------------------
                                    Active property flags
                                    ---------------------
   (+) Dipole Moment


------------------------------------------------------------------------------
                       ORCA ELECTRIC PROPERTIES CALCULATION
------------------------------------------------------------------------------

Dipole Moment Calculation                       ... on
Quadrupole Moment Calculation                   ... off
Polarizability Calculation                      ... off
GBWName                                         ... orca2.gbw
Electron density file                           ... orca2.scfp
The origin for moment calculation is the CENTER OF MASS  = (-0.151167, -0.016393 -0.043958)

-------------
DIPOLE MOMENT
-------------
                                X             Y             Z
Electronic contribution:      0.93691      -0.54252      -0.71544
Nuclear contribution   :     -1.02793       0.56710       0.69577
                        -----------------------------------------
Total Dipole Moment    :     -0.09102       0.02458      -0.01966
                        -----------------------------------------
Magnitude (a.u.)       :      0.09631
Magnitude (Debye)      :      0.24481



--------------------
Rotational spectrum 
--------------------
 
Rotational constants in cm-1:     0.275104     0.261604     0.154894 
Rotational constants in MHz :  8247.412868  7842.699794  4643.610641 

 Dipole components along the rotational axes: 
x,y,z [a.u.] :    -0.036525    -0.086218    -0.022559 
x,y,z [Debye]:    -0.092838    -0.219148    -0.057340 

 

Timings for individual modules:

Sum of individual times         ...     8666.001 sec (= 144.433 min)
GTO integral calculation        ...      231.564 sec (=   3.859 min)   2.7 %
SCF iterations                  ...     8198.025 sec (= 136.634 min)  94.6 %
SCF Gradient evaluation         ...      148.295 sec (=   2.472 min)   1.7 %
Geometry relaxation             ...       88.116 sec (=   1.469 min)   1.0 %
                             ****ORCA TERMINATED NORMALLY****
TOTAL RUN TIME: 0 days 2 hours 30 minutes 1 seconds 439 msec
