
                                 *****************
                                 * O   R   C   A *
                                 *****************

           --- An Ab Initio, DFT and Semiempirical electronic structure package ---

                  #######################################################
                  #                        -***-                        #
                  #          Department of theory and spectroscopy      #
                  #               Directorship: Frank Neese             #
                  #        Max Planck Institute fuer Kohlenforschung    #
                  #                Kaiser Wilhelm Platz 1               #
                  #                 D-45470 Muelheim/Ruhr               #
                  #                      Germany                        #
                  #                                                     #
                  #                  All rights reserved                #
                  #                        -***-                        #
                  #######################################################


                         Program Version 4.2.1 -  RELEASE  -


 With contributions from (in alphabetic order):
   Daniel Aravena         : Magnetic Suceptibility
   Michael Atanasov       : Ab Initio Ligand Field Theory (pilot matlab implementation)
   Alexander A. Auer      : GIAO ZORA, VPT2
   Ute Becker             : Parallelization
   Giovanni Bistoni       : ED, misc. LED, open-shell LED, HFLD
   Martin Brehm           : Molecular dynamics
   Dmytro Bykov           : SCF Hessian
   Vijay G. Chilkuri      : MRCI spin determinant printing, contributions to CSF-ICE
   Dipayan Datta          : RHF DLPNO-CCSD density
   Achintya Kumar Dutta   : EOM-CC, STEOM-CC
   Dmitry Ganyushin       : Spin-Orbit,Spin-Spin,Magnetic field MRCI
   Miquel Garcia          : C-PCM Hessian, Gaussian charge scheme
   Yang Guo               : DLPNO-NEVPT2, CIM, IAO-localization
   Andreas Hansen         : Spin unrestricted coupled pair/coupled cluster methods
   Benjamin Helmich-Paris : CASSCF linear response (MC-RPA)
   Lee Huntington         : MR-EOM, pCC
   Robert Izsak           : Overlap fitted RIJCOSX, COSX-SCS-MP3, EOM
   Christian Kollmar      : KDIIS, OOCD, Brueckner-CCSD(T), CCSD density
   Simone Kossmann        : Meta GGA functionals, TD-DFT gradient, OOMP2, MP2 Hessian
   Martin Krupicka        : AUTO-CI
   Lucas Lang             : DCDCAS
   Dagmar Lenk            : GEPOL surface, SMD
   Dimitrios Liakos       : Extrapolation schemes; Compound Job, initial MDCI parallelization
   Dimitrios Manganas     : Further ROCIS development; embedding schemes
   Dimitrios Pantazis     : SARC Basis sets
   Taras Petrenko         : DFT Hessian,TD-DFT gradient, ASA, ECA, R-Raman, ABS, FL, XAS/XES, NRVS
   Peter Pinski           : DLPNO-MP2, DLPNO-MP2 Gradient
   Christoph Reimann      : Effective Core Potentials
   Marius Retegan         : Local ZFS, SOC
   Christoph Riplinger    : Optimizer, TS searches, QM/MM, DLPNO-CCSD(T), (RO)-DLPNO pert. Triples
   Tobias Risthaus        : Range-separated hybrids, TD-DFT gradient, RPA, STAB
   Michael Roemelt        : Original ROCIS implementation
   Masaaki Saitow         : Open-shell DLPNO-CCSD energy and density
   Barbara Sandhoefer     : DKH picture change effects
   Avijit Sen             : IP-ROCIS
   Kantharuban Sivalingam : CASSCF convergence, NEVPT2, FIC-MRCI
   Bernardo de Souza      : ESD, SOC TD-DFT
   Georgi Stoychev        : AutoAux, RI-MP2 NMR
   Willem Van den Heuvel  : Paramagnetic NMR
   Boris Wezisla          : Elementary symmetry handling
   Frank Wennmohs         : Technical directorship


 We gratefully acknowledge several colleagues who have allowed us to
 interface, adapt or use parts of their codes:
   Stefan Grimme, W. Hujo, H. Kruse,             : VdW corrections, initial TS optimization,
                  C. Bannwarth                     DFT functionals, gCP, sTDA/sTD-DF
   Ed Valeev, F. Pavosevic, A. Kumar             : LibInt (2-el integral package), F12 methods
   Garnet Chan, S. Sharma, J. Yang, R. Olivares  : DMRG
   Ulf Ekstrom                                   : XCFun DFT Library
   Mihaly Kallay                                 : mrcc  (arbitrary order and MRCC methods)
   Andreas Klamt, Michael Diedenhofen            : otool_cosmo (COSMO solvation model)
   Jiri Pittner, Ondrej Demel                    : Mk-CCSD
   Frank Weinhold                                : gennbo (NPA and NBO analysis)
   Christopher J. Cramer and Donald G. Truhlar   : smd solvation model
   Lars Goerigk                                  : TD-DFT with DH, B97 family of functionals
   V. Asgeirsson, H. Jonsson                     : NEB implementation
   FAccTs GmbH                                   : IRC, NEB, NEB-TS, Multilevel, MM, QM/MM, CI optimization
   S Lehtola, MJT Oliveira, MAL Marques          : LibXC Library


 Your calculation uses the libint2 library for the computation of 2-el integrals
 For citations please refer to: http://libint.valeyev.net

 Your ORCA version has been built with support for libXC version: 4.2.3
 For citations please refer to: https://tddft.org/programs/libxc/

 This ORCA versions uses:
   CBLAS   interface :  Fast vector & matrix operations
   LAPACKE interface :  Fast linear algebra routines
   SCALAPACK package :  Parallel linear algebra routines


Your calculation utilizes the atom-pairwise dispersion correction
with the Becke-Johnson damping scheme (D3BJ)
Cite in your paper:
S.Grimme, S.Ehrlich, L.Goerigk, J Comput Chem, (2011), 32, 1456–1465 
S.Grimme, J.Antony, S.Ehrlich and H.Krieg, J.Chem.Phys., 132, (2010), 154104 
   

----- Orbital basis set information -----
Your calculation utilizes the basis: def2-SV(P)
   F. Weigend and R. Ahlrichs, Phys. Chem. Chem. Phys. 7, 3297 (2005).

----- AuxJ basis set information -----
Your calculation utilizes the auxiliary basis: def2/J
   F. Weigend, Phys. Chem. Chem. Phys. 8, 1057 (2006).

================================================================================
                                        WARNINGS
                       Please study these warnings very carefully!
================================================================================


WARNING: Geometry Optimization
  ===> : Switching off AutoStart
         For restart on a previous wavefunction, please use MOREAD

INFO   : the flag for use of LIBINT has been found!

================================================================================
                                       INPUT FILE
================================================================================
NAME = orca0.inp
|  1> ! UKS B3LYP def2-SV(P) def2/J D3BJ Opt
|  2> %scf Convergence VeryTight
|  3> SmearTemp 2000
|  4> maxiter 500
|  5> end
|  6> *xyz 0 2
|  7> C 0.072221 -0.032482 -0.346561
|  8> C 0.505744 1.301146 0.180439
|  9> C -1.411939 -0.161291 -0.122208
| 10> C 0.859189 -1.191009 0.177817
| 11> H 0.212715 -0.009292 -1.458175
| 12> H -0.337583 1.906506 0.599227
| 13> H 1.273966 1.24313 0.964704
| 14> H -1.690969 -0.415783 0.909117
| 15> H -1.839215 0.850244 -0.33206
| 16> H -1.879757 -0.839576 -0.877447
| 17> H 0.274192 -1.913705 0.771976
| 18> H 1.724278 -0.894638 0.817025
| 19> H 1.313489 -1.79121 -0.651259
| 20> *
| 21> 
| 22>                          ****END OF INPUT****
================================================================================

                       *****************************
                       * Geometry Optimization Run *
                       *****************************

Geometry optimization settings:
Update method            Update   .... BFGS
Choice of coordinates    CoordSys .... Z-matrix Internals
Initial Hessian          InHess   .... Almoef's Model

Convergence Tolerances:
Energy Change            TolE     ....  5.0000e-06 Eh
Max. Gradient            TolMAXG  ....  3.0000e-04 Eh/bohr
RMS Gradient             TolRMSG  ....  1.0000e-04 Eh/bohr
Max. Displacement        TolMAXD  ....  4.0000e-03 bohr
RMS Displacement         TolRMSD  ....  2.0000e-03 bohr
Strict Convergence                ....  False
------------------------------------------------------------------------------
                        ORCA OPTIMIZATION COORDINATE SETUP
------------------------------------------------------------------------------

The optimization will be done in new redundant internal coordinates
Making redundant internal coordinates   ...  (new redundants) done
Evaluating the initial hessian          ...  (Almloef) done
Evaluating the coordinates              ...  done
Calculating the B-matrix                .... done
Calculating the G-matrix                .... done
Diagonalizing the G-matrix              .... done
The first mode is                       ....   24
The number of degrees of freedom        ....   33

    -----------------------------------------------------------------
                    Redundant Internal Coordinates


    -----------------------------------------------------------------
         Definition                    Initial Value    Approx d2E/dq
    -----------------------------------------------------------------
      1. B(C   1,C   0)                  1.4981         0.420057   
      2. B(C   2,C   0)                  1.5065         0.407202   
      3. B(C   3,C   0)                  1.4955         0.424076   
      4. B(H   4,C   0)                  1.1207         0.321698   
      5. B(H   5,C   1)                  1.1194         0.323240   
      6. B(H   6,C   1)                  1.0994         0.347923   
      7. B(H   7,C   2)                  1.0983         0.349290   
      8. B(H   8,C   2)                  1.1179         0.324964   
      9. B(H   9,C   2)                  1.1177         0.325229   
     10. B(H  10,C   3)                  1.1034         0.342777   
     11. B(H  11,C   3)                  1.1157         0.327650   
     12. B(H  12,C   3)                  1.1198         0.322736   
     13. A(C   1,C   0,H   4)          107.1116         0.324559   
     14. A(C   2,C   0,H   4)          105.8418         0.322907   
     15. A(C   1,C   0,C   2)          107.9878         0.376281   
     16. A(C   1,C   0,C   3)          114.4570         0.378934   
     17. A(C   2,C   0,C   3)          113.5757         0.376901   
     18. A(C   3,C   0,H   4)          107.3291         0.325067   
     19. A(H   5,C   1,H   6)          106.7442         0.284438   
     20. A(C   0,C   1,H   6)          113.9661         0.328774   
     21. A(C   0,C   1,H   5)          113.2672         0.324814   
     22. A(H   7,C   2,H   9)          112.8016         0.284884   
     23. A(C   0,C   2,H   9)          111.3208         0.323486   
     24. A(H   7,C   2,H   8)          106.7876         0.284848   
     25. A(C   0,C   2,H   8)          105.7359         0.323443   
     26. A(H   8,C   2,H   9)          105.2054         0.281709   
     27. A(C   0,C   2,H   7)          114.2007         0.327305   
     28. A(H  11,C   3,H  12)          104.5948         0.281732   
     29. A(H  10,C   3,H  12)          105.2305         0.283712   
     30. A(C   0,C   3,H  12)          111.6600         0.325239   
     31. A(H  10,C   3,H  11)          106.0549         0.284379   
     32. A(C   0,C   3,H  11)          113.7739         0.326049   
     33. A(C   0,C   3,H  10)          114.6584         0.328483   
     34. D(H   6,C   1,C   0,C   3)     -6.2097         0.013047   
     35. D(H   6,C   1,C   0,H   4)   -125.0518         0.013047   
     36. D(H   6,C   1,C   0,C   2)    121.3536         0.013047   
     37. D(H   5,C   1,C   0,H   4)    112.6496         0.013047   
     38. D(H   5,C   1,C   0,C   2)     -0.9450         0.013047   
     39. D(H   5,C   1,C   0,C   3)   -128.5083         0.013047   
     40. D(H   7,C   2,C   0,C   1)    -78.2189         0.013140   
     41. D(H   9,C   2,C   0,C   1)    152.6194         0.013140   
     42. D(H   8,C   2,C   0,H   4)    -75.5517         0.013140   
     43. D(H   8,C   2,C   0,C   1)     38.8858         0.013140   
     44. D(H   7,C   2,C   0,H   4)    167.3436         0.013140   
     45. D(H   7,C   2,C   0,C   3)     49.8504         0.013140   
     46. D(H   9,C   2,C   0,C   3)    -79.3113         0.013140   
     47. D(H   9,C   2,C   0,H   4)     38.1819         0.013140   
     48. D(H   8,C   2,C   0,C   3)    166.9551         0.013140   
     49. D(H  12,C   3,C   0,H   4)     -4.8166         0.014224   
     50. D(H  12,C   3,C   0,C   1)   -123.5360         0.014224   
     51. D(H  11,C   3,C   0,H   4)    113.2963         0.014224   
     52. D(H  11,C   3,C   0,C   2)   -130.0776         0.014224   
     53. D(H  11,C   3,C   0,C   1)     -5.4231         0.014224   
     54. D(H  10,C   3,C   0,H   4)   -124.3768         0.014224   
     55. D(H  12,C   3,C   0,C   2)    111.8095         0.014224   
     56. D(H  10,C   3,C   0,C   2)     -7.7507         0.014224   
     57. D(H  10,C   3,C   0,C   1)    116.9038         0.014224   
    -----------------------------------------------------------------

Number of atoms                         .... 13
Number of degrees of freedom            .... 57

Time needed for optimization step       :     3.62 sec

         *************************************************************
         *                GEOMETRY OPTIMIZATION CYCLE   1            *
         *************************************************************
---------------------------------
CARTESIAN COORDINATES (ANGSTROEM)
---------------------------------
  C      0.072221   -0.032482   -0.346561
  C      0.505744    1.301146    0.180439
  C     -1.411939   -0.161291   -0.122208
  C      0.859189   -1.191009    0.177817
  H      0.212715   -0.009292   -1.458175
  H     -0.337583    1.906506    0.599227
  H      1.273966    1.243130    0.964704
  H     -1.690969   -0.415783    0.909117
  H     -1.839215    0.850244   -0.332060
  H     -1.879757   -0.839576   -0.877447
  H      0.274192   -1.913705    0.771976
  H      1.724278   -0.894638    0.817025
  H      1.313489   -1.791210   -0.651259

----------------------------
CARTESIAN COORDINATES (A.U.)
----------------------------
  NO LB      ZA    FRAG     MASS         X           Y           Z
   0 C     6.0000    0    12.011    0.136478   -0.061382   -0.654905
   1 C     6.0000    0    12.011    0.955718    2.458810    0.340980
   2 C     6.0000    0    12.011   -2.668178   -0.304796   -0.230940
   3 C     6.0000    0    12.011    1.623632   -2.250681    0.336025
   4 H     1.0000    0     1.008    0.401973   -0.017559   -2.755551
   5 H     1.0000    0     1.008   -0.637939    3.602774    1.132375
   6 H     1.0000    0     1.008    2.407447    2.349175    1.823026
   7 H     1.0000    0     1.008   -3.195468   -0.785716    1.717982
   8 H     1.0000    0     1.008   -3.475613    1.606728   -0.627502
   9 H     1.0000    0     1.008   -3.552226   -1.586569   -1.658135
  10 H     1.0000    0     1.008    0.518148   -3.616378    1.458823
  11 H     1.0000    0     1.008    3.258413   -1.690621    1.543953
  12 H     1.0000    0     1.008    2.482134   -3.384896   -1.230701

--------------------------------
INTERNAL COORDINATES (ANGSTROEM)
--------------------------------
 C      0   0   0     0.000000000000     0.00000000     0.00000000
 C      1   0   0     1.498077045386     0.00000000     0.00000000
 C      1   2   0     1.506538062144   107.98780643     0.00000000
 C      1   2   3     1.495485115151   114.45698727   232.43668760
 H      1   2   3     1.120697115697   107.11159823   113.59459130
 H      2   1   3     1.119394723711   113.26722193   359.05499324
 H      2   1   3     1.099364583641   113.96610645   121.35358761
 H      3   1   2     1.098296487561   114.20067550   281.78111534
 H      3   1   2     1.117947091013   105.73593644    38.88580838
 H      3   1   2     1.117725444584   111.32076598   152.61938926
 H      4   1   2     1.103420099376   114.65835525   116.90379277
 H      4   1   2     1.115706778157   113.77394146   354.57691214
 H      4   1   2     1.119819960608   111.66001987   236.46400174

---------------------------
INTERNAL COORDINATES (A.U.)
---------------------------
 C      0   0   0     0.000000000000     0.00000000     0.00000000
 C      1   0   0     2.830955343294     0.00000000     0.00000000
 C      1   2   0     2.846944347781   107.98780643     0.00000000
 C      1   2   3     2.826057304990   114.45698727   232.43668760
 H      1   2   3     2.117810627743   107.11159823   113.59459130
 H      2   1   3     2.115349463571   113.26722193   359.05499324
 H      2   1   3     2.077497984415   113.96610645   121.35358761
 H      3   1   2     2.075479575338   114.20067550   281.78111534
 H      3   1   2     2.112613834229   105.73593644    38.88580838
 H      3   1   2     2.112194983179   111.32076598   152.61938926
 H      4   1   2     2.085161798484   114.65835525   116.90379277
 H      4   1   2     2.108380256477   113.77394146   354.57691214
 H      4   1   2     2.116153044848   111.66001987   236.46400174

---------------------
BASIS SET INFORMATION
---------------------
There are 2 groups of distinct atoms

 Group   1 Type C   : 7s4p1d contracted to 3s2p1d pattern {511/31/1}
 Group   2 Type H   : 4s contracted to 2s pattern {31}

Atom   0C    basis set group =>   1
Atom   1C    basis set group =>   1
Atom   2C    basis set group =>   1
Atom   3C    basis set group =>   1
Atom   4H    basis set group =>   2
Atom   5H    basis set group =>   2
Atom   6H    basis set group =>   2
Atom   7H    basis set group =>   2
Atom   8H    basis set group =>   2
Atom   9H    basis set group =>   2
Atom  10H    basis set group =>   2
Atom  11H    basis set group =>   2
Atom  12H    basis set group =>   2
---------------------------------
AUXILIARY/J BASIS SET INFORMATION
---------------------------------
There are 2 groups of distinct atoms

 Group   1 Type C   : 12s5p4d2f1g contracted to 6s4p3d1f1g pattern {711111/2111/211/2/1}
 Group   2 Type H   : 5s2p1d contracted to 3s1p1d pattern {311/2/1}

Atom   0C    basis set group =>   1
Atom   1C    basis set group =>   1
Atom   2C    basis set group =>   1
Atom   3C    basis set group =>   1
Atom   4H    basis set group =>   2
Atom   5H    basis set group =>   2
Atom   6H    basis set group =>   2
Atom   7H    basis set group =>   2
Atom   8H    basis set group =>   2
Atom   9H    basis set group =>   2
Atom  10H    basis set group =>   2
Atom  11H    basis set group =>   2
Atom  12H    basis set group =>   2
------------------------------------------------------------------------------
                           ORCA GTO INTEGRAL CALCULATION
------------------------------------------------------------------------------

                         BASIS SET STATISTICS AND STARTUP INFO

 # of primitive gaussian shells          ...   84
 # of primitive gaussian functions       ...  132
 # of contracted shells                  ...   42
 # of contracted basis functions         ...   74
 Highest angular momentum                ...    2
 Maximum contraction depth               ...    5
 Integral package used                   ... LIBINT
 Integral threshhold            Thresh   ...  1.000e-12
 Primitive cut-off              TCut     ...  1.000e-14


------------------------------ INTEGRAL EVALUATION ----------------------------


 * One electron integrals 
 Pre-screening matrix                    ... done
 Shell pair data                         ... done (   0.000 sec)

-------------------------------------------------------------------------------
                                 ORCA SCF
-------------------------------------------------------------------------------

------------
SCF SETTINGS
------------
Hamiltonian:
 Density Functional     Method          .... DFT(GTOs)
 Exchange Functional    Exchange        .... B88
   X-Alpha parameter    XAlpha          ....  0.666667
   Becke's b parameter  XBeta           ....  0.004200
 Correlation Functional Correlation     .... LYP
 LDA part of GGA corr.  LDAOpt          .... VWN-5
 Gradients option       PostSCFGGA      .... off
 Hybrid DFT is turned on
   Fraction HF Exchange ScalHFX         ....  0.200000
   Scaling of DF-GGA-X  ScalDFX         ....  0.720000
   Scaling of DF-GGA-C  ScalDFC         ....  0.810000
   Scaling of DF-LDA-C  ScalLDAC        ....  1.000000
   Perturbative correction              ....  0.000000
   Density functional embedding theory  .... OFF
   NL short-range parameter             ....  4.800000


General Settings:
 Integral files         IntName         .... orca0
 Hartree-Fock type      HFTyp           .... UHF
 Total Charge           Charge          ....    0
 Multiplicity           Mult            ....    2
 Number of Electrons    NEL             ....   33
 Basis Dimension        Dim             ....   74
 Nuclear Repulsion      ENuc            ....    127.2586060332 Eh

Convergence Acceleration:
 DIIS                   CNVDIIS         .... on
   Start iteration      DIISMaxIt       ....    12
   Startup error        DIISStart       ....  0.200000
   # of expansion vecs  DIISMaxEq       ....     5
   Bias factor          DIISBfac        ....   1.050
   Max. coefficient     DIISMaxC        ....  10.000
 Newton-Raphson         CNVNR           .... off
 SOSCF                  CNVSOSCF        .... off
 Level Shifting         CNVShift        .... on
   Level shift para.    LevelShift      ....    0.2500
   Turn off err/grad.   ShiftErr        ....    0.0010
 Zerner damping         CNVZerner       .... off
 Static damping         CNVDamp         .... on
   Fraction old density DampFac         ....    0.7000
   Max. Damping (<1)    DampMax         ....    0.9800
   Min. Damping (>=0)   DampMin         ....    0.0000
   Turn off err/grad.   DampErr         ....    0.1000
 Fernandez-Rico         CNVRico         .... off

SCF Procedure:
 Maximum # iterations   MaxIter         ....   500
 SCF integral mode      SCFMode         .... Direct
   Integral package                     .... LIBINT
 Reset frequency        DirectResetFreq ....    20
 Integral Threshold     Thresh          ....  1.000e-12 Eh
 Primitive CutOff       TCut            ....  1.000e-14 Eh

Convergence Tolerance:
 Convergence Check Mode ConvCheckMode   .... Total+1el-Energy
 Convergence forced     ConvForced      .... 0
 Energy Change          TolE            ....  1.000e-09 Eh
 1-El. energy change                    ....  1.000e-06 Eh
 DIIS Error             TolErr          ....  1.000e-08


Diagonalization of the overlap matrix:
Smallest eigenvalue                        ... 1.788e-03
Time for diagonalization                   ...    0.001 sec
Threshold for overlap eigenvalues          ... 1.000e-08
Number of eigenvalues below threshold      ... 0
Time for construction of square roots      ...    0.830 sec
Total time needed                          ...    0.831 sec

-------------------
DFT GRID GENERATION
-------------------

General Integration Accuracy     IntAcc      ...  4.340
Radial Grid Type                 RadialGrid  ... Gauss-Chebyshev
Angular Grid (max. acc.)         AngularGrid ... Lebedev-110
Angular grid pruning method      GridPruning ... 3 (G Style)
Weight generation scheme         WeightScheme... Becke
Basis function cutoff            BFCut       ...    1.0000e-12
Integration weight cutoff        WCut        ...    1.0000e-14
Grids for H and He will be reduced by one unit

# of grid points (after initial pruning)     ...  13770 (   0.0 sec)
# of grid points (after weights+screening)   ...  12872 (   0.0 sec)
nearest neighbour list constructed           ...    0.0 sec
Grid point re-assignment to atoms done       ...    0.0 sec
Grid point division into batches done        ...    0.0 sec
Reduced shell lists constructed in    0.1 sec

Total number of grid points                  ...    12872
Total number of batches                      ...      210
Average number of points per batch           ...       61
Average number of grid points per atom       ...      990
Average number of shells per batch           ...    37.39 (89.02%)
Average number of basis functions per batch  ...    66.59 (89.99%)
Average number of large shells per batch     ...    32.88 (87.95%)
Average number of large basis fcns per batch ...    58.27 (87.51%)
Maximum spatial batch extension              ...  22.29, 18.49, 20.22 au
Average spatial batch extension              ...   4.22,  3.97,  4.06 au

Time for grid setup =    2.419 sec

------------------------------
INITIAL GUESS: MODEL POTENTIAL
------------------------------
Loading Hartree-Fock densities                     ... done
Calculating cut-offs                               ... done
Setting up the integral package                    ... done
Initializing the effective Hamiltonian             ... done
Starting the Coulomb interaction                   ... done (   0.0 sec)
Reading the grid                                   ... done
Mapping shells                                     ... done
Starting the XC term evaluation                    ... done (   0.1 sec)
  promolecular density results
     # of electrons  =     32.999724275
     EX              =    -23.191328384
     EC              =     -1.032629414
     EX+EC           =    -24.223957798
Transforming the Hamiltonian                       ... done (   0.0 sec)
Diagonalizing the Hamiltonian                      ... done (   0.0 sec)
Back transforming the eigenvectors                 ... done (   0.0 sec)
Now organizing SCF variables                       ... done
                      ------------------
                      INITIAL GUESS DONE (   2.6 sec)
                      ------------------
--------------
SCF ITERATIONS
--------------
ITER       Energy         Delta-E        Max-DP      RMS-DP      [F,P]     Damp
               ***  Starting incremental Fock matrix formation  ***
  0   -157.3583867427   0.000000000000 0.04202826  0.00207646  0.1720352 0.7000
  1   -157.4271537001  -0.068766957365 0.02576502  0.00148984  0.0888093 0.7000
                               ***Turning on DIIS***
  2   -157.4547764181  -0.027622717982 0.03631289  0.00247325  0.0326332 0.0000
  3   -157.4926485276  -0.037872109559 0.01775677  0.00105292  0.0486177 0.0000
  4   -157.5049651541  -0.012316626491 0.00576046  0.00031591  0.0091517 0.0000
  5   -157.5055851166  -0.000619962426 0.00182656  0.00011049  0.0022326 0.0000
  6   -157.5056375876  -0.000052471053 0.00113231  0.00007333  0.0007349 0.0000
  7   -157.5056492415  -0.000011653934 0.00041830  0.00001529  0.0001567 0.0000
  8   -157.5056501532  -0.000000911656 0.00012679  0.00000433  0.0001054 0.0000
  9   -157.5056502518  -0.000000098585 0.00006324  0.00000196  0.0000424 0.0000
 10   -157.5056502739  -0.000000022135 0.00002107  0.00000073  0.0000088 0.0000
 11   -157.5056502777  -0.000000003733 0.00001045  0.00000041  0.0000038 0.0000
 12   -157.5056502786  -0.000000000988 0.00000332  0.00000012  0.0000017 0.0000
 13   -157.5056502788  -0.000000000131 0.00000321  0.00000012  0.0000008 0.0000
 14   -157.5056502788  -0.000000000075 0.00000115  0.00000004  0.0000004 0.0000
 15   -157.5056502789  -0.000000000005 0.00000069  0.00000002  0.0000002 0.0000
 16   -157.5056502789   0.000000000003 0.00000013  0.00000000  0.0000001 0.0000
                 **** Energy Check signals convergence ****

 Fermi smearing  (ALPHA): E(HOMO(Eh)) = -0.323614 MUE = -0.082241 gap=   7.702 eV
 Fermi smearing   (BETA): E(HOMO(Eh)) = -0.317053 MUE = -0.189676 gap=   6.909 eV

N_FOD(alpha) =  0.000000
 N_FOD(beta) =  0.000000
       N_FOD =  0.000000

               *****************************************************
               *                     SUCCESS                       *
               *           SCF CONVERGED AFTER  17 CYCLES          *
               *****************************************************

Setting up the final grid:

General Integration Accuracy     IntAcc      ...  4.670
Radial Grid Type                 RadialGrid  ... Gauss-Chebyshev
Angular Grid (max. acc.)         AngularGrid ... Lebedev-302
Angular grid pruning method      GridPruning ... 3 (G Style)
Weight generation scheme         WeightScheme... Becke
Basis function cutoff            BFCut       ...    1.0000e-12
Integration weight cutoff        WCut        ...    1.0000e-14
Grids for H and He will be reduced by one unit

# of grid points (after initial pruning)     ...  55394 (   0.0 sec)
# of grid points (after weights+screening)   ...  51196 (   0.1 sec)
nearest neighbour list constructed           ...    0.0 sec
Grid point re-assignment to atoms done       ...    0.0 sec
Grid point division into batches done        ...    0.1 sec
Reduced shell lists constructed in    0.3 sec

Total number of grid points                  ...    51196
Total number of batches                      ...      807
Average number of points per batch           ...       63
Average number of grid points per atom       ...     3938
Average number of shells per batch           ...    34.97 (83.26%)
Average number of basis functions per batch  ...    62.16 (84.00%)
Average number of large shells per batch     ...    30.07 (85.99%)
Average number of large basis fcns per batch ...    52.98 (85.23%)
Maximum spatial batch extension              ...  18.90, 18.81, 18.61 au
Average spatial batch extension              ...   2.66,  2.59,  2.60 au

Final grid set up in    1.2 sec
Final integration                            ... done (  11.8 sec)
Change in XC energy                          ...     0.000486998
Integrated number of electrons               ...    33.000040117
Previous integrated no of electrons          ...    33.004243788

----------------
TOTAL SCF ENERGY
----------------

Total Energy       :         -157.50516328 Eh           -4285.93339 eV

Components:
Nuclear Repulsion  :          127.25860603 Eh            3462.88272 eV
Electronic Energy  :         -284.76376931 Eh           -7748.81611 eV
One Electron Energy:         -461.98892225 Eh          -12571.35769 eV
Two Electron Energy:          177.22515293 Eh            4822.54158 eV

Virial components:
Potential Energy   :         -313.41620454 Eh           -8528.48851 eV
Kinetic Energy     :          155.91104126 Eh            4242.55512 eV
Virial Ratio       :            2.01022456


DFT components:
N(Alpha)           :       17.000022613174 electrons
N(Beta)            :       16.000017503787 electrons
N(Total)           :       33.000040116962 electrons
E(X)               :      -18.888991367184 Eh       
E(C)               :       -1.221701440317 Eh       
E(XC)              :      -20.110692807500 Eh       
DFET-embed. en.    :        0.000000000000 Eh       

---------------
SCF CONVERGENCE
---------------

  Last Energy change         ...   -1.6740e-11  Tolerance :   1.0000e-09
  Last MAX-Density change    ...    1.2547e-07  Tolerance :   1.0000e-08
  Last RMS-Density change    ...    5.1782e-09  Tolerance :   1.0000e-09
  Last DIIS Error            ...    2.4090e-08  Tolerance :   1.0000e-08

             **** THE GBW FILE WAS UPDATED (orca0.gbw) ****
             **** DENSITY FILE WAS UPDATED (orca0.scfp) ****
             **** ENERGY FILE WAS UPDATED (orca0.en.tmp) ****
             **** THE GBW FILE WAS UPDATED (orca0.gbw) ****
             **** DENSITY FILE WAS UPDATED (orca0.scfp) ****
----------------
ORBITAL ENERGIES
----------------
                 SPIN UP ORBITALS
  NO   OCC          E(Eh)            E(eV) 
   0   1.0000     -10.184865      -277.1443 
   1   1.0000     -10.184133      -277.1243 
   2   1.0000     -10.169712      -276.7319 
   3   1.0000     -10.168844      -276.7083 
   4   1.0000      -0.806253       -21.9393 
   5   1.0000      -0.678858       -18.4727 
   6   1.0000      -0.660097       -17.9621 
   7   1.0000      -0.554792       -15.0967 
   8   1.0000      -0.455646       -12.3988 
   9   1.0000      -0.439289       -11.9537 
  10   1.0000      -0.428087       -11.6488 
  11   1.0000      -0.391818       -10.6619 
  12   1.0000      -0.361874        -9.8471 
  13   1.0000      -0.347218        -9.4483 
  14   1.0000      -0.333497        -9.0749 
  15   1.0000      -0.323614        -8.8060 
  16   1.0000      -0.223768        -6.0890 
  17   0.0000       0.059287         1.6133 
  18   0.0000       0.082244         2.2380 
  19   0.0000       0.103428         2.8144 
  20   0.0000       0.111028         3.0212 
  21   0.0000       0.115771         3.1503 
  22   0.0000       0.138841         3.7781 
  23   0.0000       0.142780         3.8852 
  24   0.0000       0.158876         4.3232 
  25   0.0000       0.178251         4.8505 
  26   0.0000       0.222799         6.0627 
  27   0.0000       0.291501         7.9321 
  28   0.0000       0.298011         8.1093 
  29   0.0000       0.415193        11.2980 
  30   0.0000       0.426419        11.6034 
  31   0.0000       0.430532        11.7154 
  32   0.0000       0.488486        13.2924 
  33   0.0000       0.509964        13.8768 
  34   0.0000       0.520690        14.1687 
  35   0.0000       0.579606        15.7719 
  36   0.0000       0.591122        16.0853 
  37   0.0000       0.618470        16.8294 
  38   0.0000       0.648298        17.6411 
  39   0.0000       0.660304        17.9678 
  40   0.0000       0.672577        18.3018 
  41   0.0000       0.681587        18.5469 
  42   0.0000       0.692048        18.8316 
  43   0.0000       0.696431        18.9508 
  44   0.0000       0.708860        19.2891 
  45   0.0000       0.723373        19.6840 
  46   0.0000       0.727739        19.8028 
  47   0.0000       0.736734        20.0476 
  48   0.0000       0.747668        20.3451 
  49   0.0000       0.753983        20.5169 
  50   0.0000       0.821645        22.3581 
  51   0.0000       0.844923        22.9915 
  52   0.0000       0.956894        26.0384 
  53   0.0000       1.119422        30.4610 
  54   0.0000       1.376194        37.4481 
  55   0.0000       1.420265        38.6474 
  56   0.0000       1.761859        47.9426 
  57   0.0000       1.786695        48.6184 
  58   0.0000       1.799363        48.9632 
  59   0.0000       1.833297        49.8866 
  60   0.0000       1.854161        50.4543 
  61   0.0000       1.918893        52.2157 
  62   0.0000       1.992057        54.2066 
  63   0.0000       2.019427        54.9514 
  64   0.0000       2.050825        55.8058 
  65   0.0000       2.096680        57.0536 
  66   0.0000       2.160874        58.8004 
  67   0.0000       2.196218        59.7621 
  68   0.0000       2.202734        59.9394 
  69   0.0000       2.420431        65.8633 
  70   0.0000       2.444300        66.5128 
  71   0.0000       2.483130        67.5694 
  72   0.0000       2.699396        73.4543 
  73   0.0000       2.732471        74.3543 

                 SPIN DOWN ORBITALS
  NO   OCC          E(Eh)            E(eV) 
   0   1.0000     -10.184557      -277.1359 
   1   1.0000     -10.169901      -276.7371 
   2   1.0000     -10.169167      -276.7171 
   3   1.0000     -10.168500      -276.6989 
   4   1.0000      -0.799652       -21.7596 
   5   1.0000      -0.677700       -18.4412 
   6   1.0000      -0.638480       -17.3739 
   7   1.0000      -0.547545       -14.8995 
   8   1.0000      -0.450304       -12.2534 
   9   1.0000      -0.434093       -11.8123 
  10   1.0000      -0.423899       -11.5349 
  11   1.0000      -0.391046       -10.6409 
  12   1.0000      -0.352220        -9.5844 
  13   1.0000      -0.342916        -9.3312 
  14   1.0000      -0.330177        -8.9846 
  15   1.0000      -0.317053        -8.6274 
  16   0.0000      -0.063165        -1.7188 
  17   0.0000       0.061283         1.6676 
  18   0.0000       0.086095         2.3428 
  19   0.0000       0.104947         2.8558 
  20   0.0000       0.112551         3.0627 
  21   0.0000       0.119780         3.2594 
  22   0.0000       0.141322         3.8456 
  23   0.0000       0.145104         3.9485 
  24   0.0000       0.161802         4.4029 
  25   0.0000       0.182342         4.9618 
  26   0.0000       0.226128         6.1532 
  27   0.0000       0.292160         7.9501 
  28   0.0000       0.308480         8.3942 
  29   0.0000       0.418704        11.3935 
  30   0.0000       0.431615        11.7448 
  31   0.0000       0.434158        11.8140 
  32   0.0000       0.510552        13.8928 
  33   0.0000       0.527066        14.3422 
  34   0.0000       0.543406        14.7868 
  35   0.0000       0.589814        16.0497 
  36   0.0000       0.600261        16.3339 
  37   0.0000       0.626490        17.0477 
  38   0.0000       0.656577        17.8664 
  39   0.0000       0.663927        18.0664 
  40   0.0000       0.678291        18.4572 
  41   0.0000       0.689989        18.7756 
  42   0.0000       0.696142        18.9430 
  43   0.0000       0.700146        19.0519 
  44   0.0000       0.710398        19.3309 
  45   0.0000       0.727490        19.7960 
  46   0.0000       0.731154        19.8957 
  47   0.0000       0.741885        20.1877 
  48   0.0000       0.755800        20.5664 
  49   0.0000       0.758181        20.6312 
  50   0.0000       0.824946        22.4479 
  51   0.0000       0.852986        23.2109 
  52   0.0000       0.957617        26.0581 
  53   0.0000       1.123542        30.5731 
  54   0.0000       1.385315        37.6963 
  55   0.0000       1.428806        38.8798 
  56   0.0000       1.770225        48.1703 
  57   0.0000       1.801486        49.0209 
  58   0.0000       1.824776        49.6547 
  59   0.0000       1.863270        50.7022 
  60   0.0000       1.879030        51.1310 
  61   0.0000       1.925637        52.3992 
  62   0.0000       2.002681        54.4957 
  63   0.0000       2.031114        55.2694 
  64   0.0000       2.063654        56.1549 
  65   0.0000       2.111182        57.4482 
  66   0.0000       2.170719        59.0683 
  67   0.0000       2.211351        60.1739 
  68   0.0000       2.213855        60.2421 
  69   0.0000       2.430270        66.1310 
  70   0.0000       2.452966        66.7486 
  71   0.0000       2.489479        67.7422 
  72   0.0000       2.703212        73.5581 
  73   0.0000       2.738051        74.5062 

                    ********************************
                    * MULLIKEN POPULATION ANALYSIS *
                    ********************************

------------------------------------------
FOD BASED MULLIKEN REDUCED ORBITAL CHARGES
------------------------------------------
  0 C s       :    -0.000000  s :    -0.000000
      pz      :     0.000000  p :     0.000000
      px      :     0.000000
      py      :     0.000000
      dz2     :     0.000000  d :     0.000000
      dxz     :     0.000000
      dyz     :     0.000000
      dx2y2   :     0.000000
      dxy     :     0.000000
  1 C s       :     0.000000  s :     0.000000
      pz      :     0.000000  p :     0.000000
      px      :     0.000000
      py      :     0.000000
      dz2     :     0.000000  d :     0.000000
      dxz     :     0.000000
      dyz     :    -0.000000
      dx2y2   :     0.000000
      dxy     :     0.000000
  2 C s       :    -0.000000  s :    -0.000000
      pz      :     0.000000  p :     0.000000
      px      :     0.000000
      py      :     0.000000
      dz2     :     0.000000  d :     0.000000
      dxz     :     0.000000
      dyz     :     0.000000
      dx2y2   :     0.000000
      dxy     :     0.000000
  3 C s       :    -0.000000  s :    -0.000000
      pz      :     0.000000  p :     0.000000
      px      :     0.000000
      py      :     0.000000
      dz2     :     0.000000  d :     0.000000
      dxz     :     0.000000
      dyz     :     0.000000
      dx2y2   :     0.000000
      dxy     :     0.000000
  4 H s       :     0.000000  s :     0.000000
  5 H s       :     0.000000  s :     0.000000
  6 H s       :     0.000000  s :     0.000000
  7 H s       :     0.000000  s :     0.000000
  8 H s       :     0.000000  s :     0.000000
  9 H s       :     0.000000  s :     0.000000
 10 H s       :     0.000000  s :     0.000000
 11 H s       :     0.000000  s :     0.000000
 12 H s       :     0.000000  s :     0.000000


                     *******************************
                     * LOEWDIN POPULATION ANALYSIS *
                     *******************************

-------------------------------------------
LOEWDIN ATOMIC CHARGES AND SPIN POPULATIONS
-------------------------------------------
   0 C :   -0.176884   -0.000589
   1 C :   -0.209500    0.952615
   2 C :   -0.302558    0.018533
   3 C :   -0.310331    0.011759
   4 H :    0.122400    0.042164
   5 H :    0.105579   -0.014253
   6 H :    0.103511   -0.015321
   7 H :    0.110593    0.000497
   8 H :    0.109432    0.000481
   9 H :    0.109665    0.003947
  10 H :    0.113333    0.000791
  11 H :    0.111823   -0.000486
  12 H :    0.112938   -0.000138

----------------------------------------------------
LOEWDIN REDUCED ORBITAL CHARGES AND SPIN POPULATIONS
----------------------------------------------------
CHARGE
  0 C s       :     2.864607  s :     2.864607
      pz      :     1.073082  p :     3.197381
      px      :     1.060596
      py      :     1.063704
      dz2     :     0.031111  d :     0.114896
      dxz     :     0.011539
      dyz     :     0.016219
      dx2y2   :     0.030272
      dxy     :     0.025755
  1 C s       :     3.046574  s :     3.046574
      pz      :     1.004226  p :     3.101475
      px      :     1.066052
      py      :     1.031197
      dz2     :     0.006722  d :     0.061452
      dxz     :     0.017944
      dyz     :     0.008077
      dx2y2   :     0.012765
      dxy     :     0.015943
  2 C s       :     2.956195  s :     2.956195
      pz      :     1.107515  p :     3.269896
      px      :     1.052351
      py      :     1.110031
      dz2     :     0.018216  d :     0.076467
      dxz     :     0.014413
      dyz     :     0.011154
      dx2y2   :     0.016244
      dxy     :     0.016440
  3 C s       :     2.949611  s :     2.949611
      pz      :     1.111499  p :     3.285848
      px      :     1.095304
      py      :     1.079045
      dz2     :     0.004685  d :     0.074872
      dxz     :     0.019866
      dyz     :     0.020771
      dx2y2   :     0.010743
      dxy     :     0.018808
  4 H s       :     0.877600  s :     0.877600
  5 H s       :     0.894421  s :     0.894421
  6 H s       :     0.896489  s :     0.896489
  7 H s       :     0.889407  s :     0.889407
  8 H s       :     0.890568  s :     0.890568
  9 H s       :     0.890335  s :     0.890335
 10 H s       :     0.886667  s :     0.886667
 11 H s       :     0.888177  s :     0.888177
 12 H s       :     0.887062  s :     0.887062

SPIN
  0 C s       :    -0.003377  s :    -0.003377
      pz      :    -0.008574  p :    -0.011325
      px      :    -0.001083
      py      :    -0.001668
      dz2     :     0.008264  d :     0.014114
      dxz     :     0.000143
      dyz     :     0.004619
      dx2y2   :     0.000550
      dxy     :     0.000538
  1 C s       :     0.088955  s :     0.088955
      pz      :     0.483410  p :     0.867469
      px      :     0.145563
      py      :     0.238497
      dz2     :    -0.000424  d :    -0.003809
      dxz     :    -0.001608
      dyz     :    -0.000548
      dx2y2   :    -0.000606
      dxy     :    -0.000623
  2 C s       :     0.006178  s :     0.006178
      pz      :     0.000464  p :     0.012030
      px      :     0.011836
      py      :    -0.000270
      dz2     :     0.000096  d :     0.000325
      dxz     :    -0.000240
      dyz     :     0.000173
      dx2y2   :    -0.000025
      dxy     :     0.000322
  3 C s       :     0.003944  s :     0.003944
      pz      :     0.001388  p :     0.007776
      px      :     0.001115
      py      :     0.005272
      dz2     :     0.000054  d :     0.000038
      dxz     :    -0.000105
      dyz     :    -0.000124
      dx2y2   :     0.000313
      dxy     :    -0.000100
  4 H s       :     0.042164  s :     0.042164
  5 H s       :    -0.014253  s :    -0.014253
  6 H s       :    -0.015321  s :    -0.015321
  7 H s       :     0.000497  s :     0.000497
  8 H s       :     0.000481  s :     0.000481
  9 H s       :     0.003947  s :     0.003947
 10 H s       :     0.000791  s :     0.000791
 11 H s       :    -0.000486  s :    -0.000486
 12 H s       :    -0.000138  s :    -0.000138


                      *****************************
                      * MAYER POPULATION ANALYSIS *
                      *****************************

  NA   - Mulliken gross atomic population
  ZA   - Total nuclear charge
  QA   - Mulliken gross atomic charge
  VA   - Mayer's total valence
  BVA  - Mayer's bonded valence
  FA   - Mayer's free valence

  ATOM       NA         ZA         QA         VA         BVA        FA
  0 C      6.1094     6.0000    -0.1094     4.2207     4.2175     0.0031
  1 C      6.2114     6.0000    -0.2114     3.8856     3.0314     0.8541
  2 C      6.2536     6.0000    -0.2536     3.9874     3.9870     0.0003
  3 C      6.2456     6.0000    -0.2456     3.9423     3.9421     0.0001
  4 H      0.9126     1.0000     0.0874     0.9366     0.9343     0.0023
  5 H      0.9072     1.0000     0.0928     0.9605     0.9590     0.0015
  6 H      0.9133     1.0000     0.0867     0.9587     0.9571     0.0016
  7 H      0.9061     1.0000     0.0939     0.9593     0.9593     0.0000
  8 H      0.9085     1.0000     0.0915     0.9547     0.9547     0.0000
  9 H      0.9084     1.0000     0.0916     0.9532     0.9532     0.0001
 10 H      0.9053     1.0000     0.0947     0.9633     0.9633     0.0000
 11 H      0.9067     1.0000     0.0933     0.9637     0.9637     0.0000
 12 H      0.9119     1.0000     0.0881     0.9540     0.9540     0.0000

  Mayer bond orders larger than 0.100000
B(  0-C ,  1-C ) :   1.0963 B(  0-C ,  2-C ) :   1.1119 B(  0-C ,  3-C ) :   1.0767 
B(  0-C ,  4-H ) :   0.9075 B(  1-C ,  5-H ) :   0.9517 B(  1-C ,  6-H ) :   0.9455 
B(  2-C ,  7-H ) :   0.9526 B(  2-C ,  8-H ) :   0.9581 B(  2-C ,  9-H ) :   0.9522 
B(  3-C , 10-H ) :   0.9610 B(  3-C , 11-H ) :   0.9585 B(  3-C , 12-H ) :   0.9587 


-------
TIMINGS
-------

Total SCF time: 0 days 0 hours 7 min 1 sec 

Total time                  ....     421.089 sec
Sum of individual times     ....     345.143 sec  ( 82.0%)

Fock matrix formation       ....     292.925 sec  ( 69.6%)
  XC integration            ....     155.589 sec  ( 53.1% of F)
    Basis function eval.    ....       0.837 sec  (  0.5% of XC)
    Density eval.           ....       0.581 sec  (  0.4% of XC)
    XC-Functional eval.     ....       0.359 sec  (  0.2% of XC)
    XC-Potential eval.      ....       0.878 sec  (  0.6% of XC)
Diagonalization             ....       3.997 sec  (  0.9%)
Density matrix formation    ....      24.596 sec  (  5.8%)
Population analysis         ....      13.422 sec  (  3.2%)
Initial guess               ....       0.204 sec  (  0.0%)
Orbital Transformation      ....       0.000 sec  (  0.0%)
Orbital Orthonormalization  ....       0.000 sec  (  0.0%)
DIIS solution               ....       6.407 sec  (  1.5%)
Grid generation             ....       3.592 sec  (  0.9%)


-------------------------------------------------------------------------------
                          DFT DISPERSION CORRECTION                            
                                                                               
                              DFTD3 V3.1  Rev 1                                
                          USING Becke-Johnson damping                          
-------------------------------------------------------------------------------
The B3LYP functional is recognized
Active option DFTDOPT                   ...         4   

molecular C6(AA) [au] = 1132.237632 


            DFT-D V3
 parameters
 s6 scaling factor         :     1.0000 
 a1 scaling factor         :     0.3981 
 s8 scaling factor         :     1.9889 
 a2 scaling factor         :     4.4211 
 ad hoc parameters k1-k3   :    16.0000     1.3333    -4.0000 

 Edisp/kcal,au: -9.148301840759  -0.014578745410 
 E6   /kcal   :  -4.536648900 
 E8   /kcal   :  -4.611652940 
 % E8         :  50.409934223 

-------------------------   ----------------
Dispersion correction           -0.014578745
-------------------------   ----------------


-------------------------   --------------------
FINAL SINGLE POINT ENERGY      -157.519742025781
-------------------------   --------------------

------------------------------------------------------------------------------
                         ORCA SCF GRADIENT CALCULATION
------------------------------------------------------------------------------

Gradient of the Kohn-Sham DFT energy:
Kohn-Sham wavefunction type      ... UKS
Hartree-Fock exchange scaling    ...    0.200
Number of operators              ...    2
Number of atoms                  ...   13
Basis set dimensions             ...   74
Integral neglect threshold       ... 1.0e-12
Integral primitive cutoff        ... 1.0e-14

Nuclear repulsion gradient       ... done
One Electron Gradient            ... done
Pre-screening matrix             ... done
Starting the two electron gradient:
Two electron gradient done
Exchange-correlation gradient    ... done
Dispersion correction            ... done

------------------
CARTESIAN GRADIENT
------------------

   1   C   :   -0.001044052   -0.017829761    0.022420205
   2   C   :    0.012097695    0.001684785   -0.039693118
   3   C   :    0.025559801   -0.012924236    0.022075733
   4   C   :   -0.033239967    0.030326867   -0.002150230
   5   H   :    0.001118885   -0.001033253   -0.004183715
   6   H   :   -0.009791178   -0.005177895    0.015177876
   7   H   :   -0.012381277   -0.006103003    0.007115288
   8   H   :   -0.000333483    0.005084911   -0.002719949
   9   H   :    0.004896728    0.009825143   -0.001256607
  10   H   :   -0.000869457    0.001970536   -0.012271732
  11   H   :    0.004269381   -0.002190454   -0.001358128
  12   H   :    0.005713347   -0.000314022    0.003084717
  13   H   :    0.004003577   -0.003319619   -0.006240340

Difference to translation invariance:
           :    0.0000000000    0.0000000000    0.0000000000

Norm of the cartesian gradient     ...    0.0833135854
RMS gradient                       ...    0.0133408506
MAX gradient                       ...    0.0396931177

-------
TIMINGS
-------

Total SCF gradient time            ...        3.969 sec

One electron gradient       ....       0.027 sec  (  0.7%)
Prescreening matrices       ....       0.026 sec  (  0.7%)
Two electron gradient       ....       1.324 sec  ( 33.4%)
XC gradient                 ....       2.323 sec  ( 58.5%)
------------------------------------------------------------------------------
                         ORCA GEOMETRY RELAXATION STEP
------------------------------------------------------------------------------

Reading the OPT-File                    .... done
Getting information on internals        .... done
Copying old internal coords+grads       .... done
Making the new internal coordinates     .... (new redundants).... done
Validating the new internal coordinates .... (new redundants).... done
Calculating the B-matrix                .... done
Calculating the G,G- and P matrices     .... done
Transforming gradient to internals      .... done
Projecting the internal gradient        .... done
Number of atoms                         ....  13
Number of internal coordinates          ....  57
Current Energy                          ....  -157.519742026 Eh
Current gradient norm                   ....     0.083313585 Eh/bohr
Maximum allowed component of the step   ....  0.300
Current trust radius                    ....  0.300
Evaluating the initial hessian          ....  (Almloef) done
Projecting the Hessian                  .... done
Forming the augmented Hessian           .... done
Diagonalizing the augmented Hessian     .... done
Last element of RFO vector              ....  0.933193097
Lowest eigenvalues of augmented Hessian:
 -0.018278985  0.013047912  0.013652017  0.014281123  0.066505590
Length of the computed step             ....  0.385102885
Warning: the length of the step is outside the trust region - taking restricted step instead
The input lambda is                     ....    -0.018279
   iter:   1  x=   -0.033117  g=    3.929414 f(x)=     0.058304
   iter:   2  x=   -0.041213  g=    2.040401 f(x)=     0.016519
   iter:   3  x=   -0.042562  g=    1.555891 f(x)=     0.002099
   iter:   4  x=   -0.042591  g=    1.492635 f(x)=     0.000043
   iter:   5  x=   -0.042591  g=    1.491324 f(x)=     0.000000
   iter:   6  x=   -0.042591  g=    1.491323 f(x)=     0.000000
The output lambda is                    ....    -0.042591 (6 iterations)
The final length of the internal step   ....  0.300000000
Converting the step to cartesian space:
 Initial RMS(Int)=    0.0397359707
Transforming coordinates:
 Iter   0:  RMS(Cart)=    0.0747296567 RMS(Int)=    0.0400787996
 Iter   1:  RMS(Cart)=    0.0031820946 RMS(Int)=    0.0024646742
 Iter   2:  RMS(Cart)=    0.0002276567 RMS(Int)=    0.0001687362
 Iter   3:  RMS(Cart)=    0.0000299201 RMS(Int)=    0.0000242728
 Iter   4:  RMS(Cart)=    0.0000027652 RMS(Int)=    0.0000021630
 Iter   5:  RMS(Cart)=    0.0000003574 RMS(Int)=    0.0000002663
 Iter   6:  RMS(Cart)=    0.0000000367 RMS(Int)=    0.0000000317
done
Storing new coordinates                 .... done

                                .--------------------.
          ----------------------|Geometry convergence|-------------------------
          Item                value                   Tolerance       Converged
          ---------------------------------------------------------------------
          RMS gradient        0.0085244949            0.0001000000      NO
          MAX gradient        0.0314518228            0.0003000000      NO
          RMS step            0.0397359707            0.0020000000      NO
          MAX step            0.0963854193            0.0040000000      NO
          ........................................................
          Max(Bonds)      0.0357      Max(Angles)    3.81
          Max(Dihed)        5.52      Max(Improp)    0.00
          ---------------------------------------------------------------------

The optimization has not yet converged - more geometry cycles are needed


    ---------------------------------------------------------------------------
                         Redundant Internal Coordinates
                            (Angstroem and degrees)

        Definition                    Value    dE/dq     Step     New-Value
    ----------------------------------------------------------------------------
     1. B(C   1,C   0)                1.4981 -0.017580  0.0201    1.5182   
     2. B(C   2,C   0)                1.5065 -0.028286  0.0333    1.5398   
     3. B(C   3,C   0)                1.4955 -0.031452  0.0357    1.5311   
     4. B(H   4,C   0)                1.1207  0.004269 -0.0062    1.1145   
     5. B(H   5,C   1)                1.1194  0.010254 -0.0148    1.1046   
     6. B(H   6,C   1)                1.0994 -0.003255  0.0044    1.1038   
     7. B(H   7,C   2)                1.0983 -0.003645  0.0049    1.1032   
     8. B(H   8,C   2)                1.1179  0.007254 -0.0104    1.1075   
     9. B(H   9,C   2)                1.1177  0.007459 -0.0107    1.1070   
    10. B(H  10,C   3)                1.1034 -0.001561  0.0021    1.1056   
    11. B(H  11,C   3)                1.1157  0.006114 -0.0087    1.1070   
    12. B(H  12,C   3)                1.1198  0.008024 -0.0116    1.1082   
    13. A(C   1,C   0,H   4)          107.11  0.000952   -0.09    107.02   
    14. A(C   2,C   0,H   4)          105.84  0.002542   -0.52    105.32   
    15. A(C   1,C   0,C   2)          107.99 -0.012566    2.61    110.59   
    16. A(C   1,C   0,C   3)          114.46  0.006793   -1.10    113.36   
    17. A(C   2,C   0,C   3)          113.58  0.004838   -0.71    112.86   
    18. A(C   3,C   0,H   4)          107.33 -0.002725   -0.19    107.14   
    19. A(H   5,C   1,H   6)          106.74  0.000895    3.05    109.79   
    20. A(C   0,C   1,H   6)          113.97 -0.011277    3.39    117.36   
    21. A(C   0,C   1,H   5)          113.27 -0.013641    3.81    117.08   
    22. A(H   7,C   2,H   9)          112.80  0.004681   -1.82    110.99   
    23. A(C   0,C   2,H   9)          111.32 -0.004133    0.39    111.71   
    24. A(H   7,C   2,H   8)          106.79  0.002271    0.17    106.95   
    25. A(C   0,C   2,H   8)          105.74 -0.014128    2.84    108.57   
    26. A(H   8,C   2,H   9)          105.21  0.003902    0.18    105.38   
    27. A(C   0,C   2,H   7)          114.20  0.006156   -1.28    112.92   
    28. A(H  11,C   3,H  12)          104.59 -0.001027    0.47    105.06   
    29. A(H  10,C   3,H  12)          105.23 -0.002012    0.36    105.59   
    30. A(C   0,C   3,H  12)          111.66 -0.002796    0.58    112.24   
    31. A(H  10,C   3,H  11)          106.05 -0.003259    0.24    106.29   
    32. A(C   0,C   3,H  11)          113.77  0.001794   -0.32    113.45   
    33. A(C   0,C   3,H  10)          114.66  0.006418   -1.16    113.50   
    34. D(H   6,C   1,C   0,C   3)     -6.21 -0.009110    4.31     -1.90   
    35. D(H   6,C   1,C   0,H   4)   -125.05 -0.010441    5.27   -119.78   
    36. D(H   6,C   1,C   0,C   2)    121.35 -0.007839    4.67    126.03   
    37. D(H   5,C   1,C   0,H   4)    112.65  0.008139   -4.56    108.09   
    38. D(H   5,C   1,C   0,C   2)     -0.95  0.010741   -5.16     -6.10   
    39. D(H   5,C   1,C   0,C   3)   -128.51  0.009470   -5.52   -134.03   
    40. D(H   7,C   2,C   0,C   1)    -78.22  0.000266    0.23    -77.99   
    41. D(H   9,C   2,C   0,C   1)    152.62 -0.007926    3.53    156.15   
    42. D(H   8,C   2,C   0,H   4)    -75.55  0.000685    0.73    -74.82   
    43. D(H   8,C   2,C   0,C   1)     38.89 -0.002758    1.57     40.46   
    44. D(H   7,C   2,C   0,H   4)    167.34  0.003710   -0.61    166.73   
    45. D(H   7,C   2,C   0,C   3)     49.85  0.002764    0.34     50.19   
    46. D(H   9,C   2,C   0,C   3)    -79.31 -0.005429    3.64    -75.67   
    47. D(H   9,C   2,C   0,H   4)     38.18 -0.004483    2.69     40.87   
    48. D(H   8,C   2,C   0,C   3)    166.96 -0.000261    1.69    168.64   
    49. D(H  12,C   3,C   0,H   4)     -4.82  0.000777   -0.52     -5.34   
    50. D(H  12,C   3,C   0,C   1)   -123.54 -0.002648    0.39   -123.14   
    51. D(H  11,C   3,C   0,H   4)    113.30 -0.001306    0.28    113.58   
    52. D(H  11,C   3,C   0,C   2)   -130.08  0.002811   -0.89   -130.97   
    53. D(H  11,C   3,C   0,C   1)     -5.42 -0.004731    1.19     -4.23   
    54. D(H  10,C   3,C   0,H   4)   -124.38  0.000924   -0.60   -124.98   
    55. D(H  12,C   3,C   0,C   2)    111.81  0.004894   -1.69    110.12   
    56. D(H  10,C   3,C   0,C   2)     -7.75  0.005040   -1.77     -9.52   
    57. D(H  10,C   3,C   0,C   1)    116.90 -0.002502    0.31    117.21   
    ----------------------------------------------------------------------------

Time needed for optimization step       :     2.20 sec

         *************************************************************
         *                GEOMETRY OPTIMIZATION CYCLE   2            *
         *************************************************************
---------------------------------
CARTESIAN COORDINATES (ANGSTROEM)
---------------------------------
  C      0.064205   -0.011035   -0.339260
  C      0.533258    1.317827    0.225539
  C     -1.453839   -0.177771   -0.142346
  C      0.866423   -1.207921    0.178746
  H      0.214829    0.032239   -1.442683
  H     -0.248813    2.009104    0.586869
  H      1.360692    1.289393    0.955515
  H     -1.724155   -0.466445    0.887551
  H     -1.944453    0.794276   -0.344799
  H     -1.886504   -0.883043   -0.877758
  H      0.259906   -1.926795    0.759804
  H      1.715180   -0.921118    0.828927
  H      1.319602   -1.796671   -0.643508

----------------------------
CARTESIAN COORDINATES (A.U.)
----------------------------
  NO LB      ZA    FRAG     MASS         X           Y           Z
   0 C     6.0000    0    12.011    0.121330   -0.020854   -0.641109
   1 C     6.0000    0    12.011    1.007711    2.490333    0.426206
   2 C     6.0000    0    12.011   -2.747358   -0.335938   -0.268995
   3 C     6.0000    0    12.011    1.637303   -2.282641    0.337780
   4 H     1.0000    0     1.008    0.405968    0.060923   -2.726275
   5 H     1.0000    0     1.008   -0.470188    3.796657    1.109021
   6 H     1.0000    0     1.008    2.571335    2.436599    1.805662
   7 H     1.0000    0     1.008   -3.258181   -0.881454    1.677228
   8 H     1.0000    0     1.008   -3.674484    1.500965   -0.651576
   9 H     1.0000    0     1.008   -3.564975   -1.668709   -1.658723
  10 H     1.0000    0     1.008    0.491151   -3.641115    1.435821
  11 H     1.0000    0     1.008    3.241220   -1.740661    1.566445
  12 H     1.0000    0     1.008    2.493687   -3.395217   -1.216055

--------------------------------
INTERNAL COORDINATES (ANGSTROEM)
--------------------------------
 C      0   0   0     0.000000000000     0.00000000     0.00000000
 C      1   0   0     1.518184702679     0.00000000     0.00000000
 C      1   2   0     1.539816632746   110.59699352     0.00000000
 C      1   2   3     1.531149929613   113.35833022   232.08283547
 H      1   2   3     1.114495899619   107.01272125   114.20383205
 H      2   1   3     1.104562389395   116.79115515   353.76874475
 H      2   1   3     1.103775976463   117.07086342   126.13990196
 H      3   1   2     1.103218487034   112.90946184   282.01592654
 H      3   1   2     1.107503875794   108.56082075    40.44289327
 H      3   1   2     1.106994885944   111.67560480   156.15264669
 H      4   1   2     1.105563757124   113.49430584   117.21589452
 H      4   1   2     1.106968703255   113.44696214   355.76255685
 H      4   1   2     1.108196536866   112.24218881   236.85260089

---------------------------
INTERNAL COORDINATES (A.U.)
---------------------------
 C      0   0   0     0.000000000000     0.00000000     0.00000000
 C      1   0   0     2.868953308773     0.00000000     0.00000000
 C      1   2   0     2.909831732347   110.59699352     0.00000000
 C      1   2   3     2.893454036940   113.35833022   232.08283547
 H      1   2   3     2.106092027657   107.01272125   114.20383205
 H      2   1   3     2.087320413786   116.79115515   353.76874475
 H      2   1   3     2.085834308717   117.07086342   126.13990196
 H      3   1   2     2.084780806374   112.90946184   282.01592654
 H      3   1   2     2.092879017507   108.56082075    40.44289327
 H      3   1   2     2.091917166086   111.67560480   156.15264669
 H      4   1   2     2.089212724554   113.49430584   117.21589452
 H      4   1   2     2.091867687975   113.44696214   355.76255685
 H      4   1   2     2.094187957236   112.24218881   236.85260089


Diagonalization of the overlap matrix:
Smallest eigenvalue                        ... 2.132e-03
Time for diagonalization                   ...    0.001 sec
Threshold for overlap eigenvalues          ... 1.000e-08
Number of eigenvalues below threshold      ... 0
Time for construction of square roots      ...    2.672 sec
Total time needed                          ...    2.673 sec

-------------------
DFT GRID GENERATION
-------------------

General Integration Accuracy     IntAcc      ...  4.340
Radial Grid Type                 RadialGrid  ... Gauss-Chebyshev
Angular Grid (max. acc.)         AngularGrid ... Lebedev-110
Angular grid pruning method      GridPruning ... 3 (G Style)
Weight generation scheme         WeightScheme... Becke
Basis function cutoff            BFCut       ...    1.0000e-12
Integration weight cutoff        WCut        ...    1.0000e-14
Grids for H and He will be reduced by one unit

# of grid points (after initial pruning)     ...  13770 (   0.0 sec)
# of grid points (after weights+screening)   ...  12899 (   0.0 sec)
nearest neighbour list constructed           ...    0.0 sec
Grid point re-assignment to atoms done       ...    0.0 sec
Grid point division into batches done        ...    0.0 sec
Reduced shell lists constructed in    0.1 sec

Total number of grid points                  ...    12899
Total number of batches                      ...      208
Average number of points per batch           ...       62
Average number of grid points per atom       ...      992
Average number of shells per batch           ...    37.24 (88.68%)
Average number of basis functions per batch  ...    66.34 (89.65%)
Average number of large shells per batch     ...    32.58 (87.47%)
Average number of large basis fcns per batch ...    57.63 (86.87%)
Maximum spatial batch extension              ...  21.05, 18.94, 21.74 au
Average spatial batch extension              ...   4.24,  3.96,  4.21 au

Time for grid setup =    3.003 sec

--------------
SCF ITERATIONS
--------------
ITER       Energy         Delta-E        Max-DP      RMS-DP      [F,P]     Damp
               ***  Starting incremental Fock matrix formation  ***
  0   -157.5133196292   0.000000000000 0.00329138  0.00017266  0.0160044 0.7000
  1   -157.5140735462  -0.000753917029 0.00308752  0.00016125  0.0126689 0.7000
                               ***Turning on DIIS***
  2   -157.5146606966  -0.000587150364 0.00805022  0.00043044  0.0095124 0.0000
  3   -157.5161571972  -0.001496500573 0.00229081  0.00008581  0.0015861 0.0000
  4   -157.5161943864  -0.000037189203 0.00174472  0.00007317  0.0009223 0.0000
  5   -157.5162060171  -0.000011630748 0.00043696  0.00001882  0.0004087 0.0000
  6   -157.5162073692  -0.000001352036 0.00022955  0.00000891  0.0002025 0.0000
  7   -157.5162076274  -0.000000258233 0.00004893  0.00000199  0.0000337 0.0000
  8   -157.5162076406  -0.000000013223 0.00001358  0.00000078  0.0000223 0.0000
  9   -157.5162076437  -0.000000003107 0.00000419  0.00000022  0.0000054 0.0000
 10   -157.5162076440  -0.000000000274 0.00000183  0.00000008  0.0000010 0.0000
 11   -157.5162076440  -0.000000000036 0.00000063  0.00000003  0.0000006 0.0000
 12   -157.5162076440  -0.000000000014 0.00000046  0.00000002  0.0000003 0.0000
 13   -157.5162076441  -0.000000000004 0.00000019  0.00000001  0.0000002 0.0000
                 **** Energy Check signals convergence ****

 Fermi smearing  (ALPHA): E(HOMO(Eh)) = -0.327654 MUE = -0.077570 gap=   7.547 eV
 Fermi smearing   (BETA): E(HOMO(Eh)) = -0.321098 MUE = -0.188000 gap=   7.210 eV

N_FOD(alpha) =  0.000000
 N_FOD(beta) =  0.000000
       N_FOD =  0.000000

               *****************************************************
               *                     SUCCESS                       *
               *           SCF CONVERGED AFTER  14 CYCLES          *
               *****************************************************

Setting up the final grid:

General Integration Accuracy     IntAcc      ...  4.670
Radial Grid Type                 RadialGrid  ... Gauss-Chebyshev
Angular Grid (max. acc.)         AngularGrid ... Lebedev-302
Angular grid pruning method      GridPruning ... 3 (G Style)
Weight generation scheme         WeightScheme... Becke
Basis function cutoff            BFCut       ...    1.0000e-12
Integration weight cutoff        WCut        ...    1.0000e-14
Grids for H and He will be reduced by one unit

# of grid points (after initial pruning)     ...  55394 (   0.0 sec)
# of grid points (after weights+screening)   ...  51271 (   0.1 sec)
nearest neighbour list constructed           ...    0.0 sec
Grid point re-assignment to atoms done       ...    0.0 sec
Grid point division into batches done        ...    0.1 sec
Reduced shell lists constructed in    0.3 sec

Total number of grid points                  ...    51271
Total number of batches                      ...      807
Average number of points per batch           ...       63
Average number of grid points per atom       ...     3944
Average number of shells per batch           ...    34.81 (82.87%)
Average number of basis functions per batch  ...    61.80 (83.51%)
Average number of large shells per batch     ...    29.79 (85.59%)
Average number of large basis fcns per batch ...    52.38 (84.75%)
Maximum spatial batch extension              ...  18.98, 18.06, 17.09 au
Average spatial batch extension              ...   2.67,  2.59,  2.60 au

Final grid set up in    4.3 sec
Final integration                            ... done (  18.6 sec)
Change in XC energy                          ...     0.000235795
Integrated number of electrons               ...    33.000079401
Previous integrated no of electrons          ...    33.002967628
Total Energy       :         -157.51597185 Eh           -4286.22750 eV
  Last Energy change         ...    6.7359e-12  Tolerance :   1.0000e-09
  Last MAX-Density change    ...    8.2858e-08  Tolerance :   1.0000e-08
             **** THE GBW FILE WAS UPDATED (orca0.gbw) ****
             **** DENSITY FILE WAS UPDATED (orca0.scfp) ****
             **** ENERGY FILE WAS UPDATED (orca0.en.tmp) ****
             **** THE GBW FILE WAS UPDATED (orca0.gbw) ****
             **** DENSITY FILE WAS UPDATED (orca0.scfp) ****
Total SCF time: 0 days 0 hours 10 min 33 sec 


-------------------------------------------------------------------------------
                          DFT DISPERSION CORRECTION                            
                                                                               
                              DFTD3 V3.1  Rev 1                                
                          USING Becke-Johnson damping                          
-------------------------------------------------------------------------------
-------------------------   ----------------
Dispersion correction           -0.014335352
-------------------------   ----------------


-------------------------   --------------------
FINAL SINGLE POINT ENERGY      -157.530307201605
-------------------------   --------------------

------------------------------------------------------------------------------
                         ORCA SCF GRADIENT CALCULATION
------------------------------------------------------------------------------

Gradient of the Kohn-Sham DFT energy:
Kohn-Sham wavefunction type      ... UKS
Hartree-Fock exchange scaling    ...    0.200
Number of operators              ...    2
Number of atoms                  ...   13
Basis set dimensions             ...   74
Integral neglect threshold       ... 1.0e-12
Integral primitive cutoff        ... 1.0e-14

Nuclear repulsion gradient       ... done
One Electron Gradient            ... done
Pre-screening matrix             ... done
Starting the two electron gradient:
Two electron gradient done
Exchange-correlation gradient    ... done
Dispersion correction            ... done

------------------
CARTESIAN GRADIENT
------------------

   1   C   :    0.000366866   -0.011609730    0.006127359
   2   C   :    0.008378744    0.010982460   -0.025071089
   3   C   :    0.004316172   -0.009451770    0.008440480
   4   C   :   -0.012648453    0.013785655   -0.000340928
   5   H   :   -0.000055453   -0.001155576   -0.001446852
   6   H   :   -0.001146017   -0.003664727    0.010246550
   7   H   :   -0.005675808   -0.001656739    0.008497740
   8   H   :   -0.001051555    0.002661008   -0.000332933
   9   H   :    0.001603157    0.001628956   -0.000358325
  10   H   :   -0.001138839    0.004332165   -0.005412041
  11   H   :    0.002787668   -0.002594641   -0.000611620
  12   H   :    0.002125728   -0.002228747    0.000440470
  13   H   :    0.002137790   -0.001028312   -0.000178811

Difference to translation invariance:
           :   -0.0000000000    0.0000000000    0.0000000000

Norm of the cartesian gradient     ...    0.0429505854
RMS gradient                       ...    0.0068775980
MAX gradient                       ...    0.0250710894

-------
TIMINGS
-------

Total SCF gradient time            ...        4.705 sec

One electron gradient       ....       0.029 sec  (  0.6%)
Prescreening matrices       ....       0.026 sec  (  0.6%)
Two electron gradient       ....       1.292 sec  ( 27.5%)
XC gradient                 ....       2.414 sec  ( 51.3%)
------------------------------------------------------------------------------
                         ORCA GEOMETRY RELAXATION STEP
------------------------------------------------------------------------------

Reading the OPT-File                    .... done
Getting information on internals        .... done
Copying old internal coords+grads       .... done
Making the new internal coordinates     .... (new redundants).... done
Validating the new internal coordinates .... (new redundants).... done
Calculating the B-matrix                .... done
Calculating the G,G- and P matrices     .... done
Transforming gradient to internals      .... done
Projecting the internal gradient        .... done
Number of atoms                         ....  13
Number of internal coordinates          ....  57
Current Energy                          ....  -157.530307202 Eh
Current gradient norm                   ....     0.042950585 Eh/bohr
Maximum allowed component of the step   ....  0.300
Current trust radius                    ....  0.300
Updating the Hessian (BFGS)             .... done
Forming the augmented Hessian           .... done
Diagonalizing the augmented Hessian     .... done
Last element of RFO vector              ....  0.944119466
Lowest eigenvalues of augmented Hessian:
 -0.006702543  0.013051567  0.013574355  0.014305133  0.056609138
Length of the computed step             ....  0.349112017
Warning: the length of the step is outside the trust region - taking restricted step instead
The input lambda is                     ....    -0.006703
   iter:   1  x=   -0.012318  g=    5.677374 f(x)=     0.031879
   iter:   2  x=   -0.014084  g=    3.639365 f(x)=     0.006428
   iter:   3  x=   -0.014197  g=    3.238164 f(x)=     0.000366
   iter:   4  x=   -0.014197  g=    3.214981 f(x)=     0.000001
   iter:   5  x=   -0.014197  g=    3.214897 f(x)=     0.000000
   iter:   6  x=   -0.014197  g=    3.214897 f(x)=     0.000000
The output lambda is                    ....    -0.014197 (6 iterations)
The final length of the internal step   ....  0.300000000
Converting the step to cartesian space:
 Initial RMS(Int)=    0.0397359707
Transforming coordinates:
 Iter   0:  RMS(Cart)=    0.0433379350 RMS(Int)=    0.0400511831
 Iter   1:  RMS(Cart)=    0.0021229473 RMS(Int)=    0.0016213161
 Iter   2:  RMS(Cart)=    0.0001135757 RMS(Int)=    0.0001103992
 Iter   3:  RMS(Cart)=    0.0000114412 RMS(Int)=    0.0000098484
 Iter   4:  RMS(Cart)=    0.0000010510 RMS(Int)=    0.0000008303
 Iter   5:  RMS(Cart)=    0.0000001190 RMS(Int)=    0.0000001045
 Iter   6:  RMS(Cart)=    0.0000000115 RMS(Int)=    0.0000000086
done
Storing new coordinates                 .... done

                                .--------------------.
          ----------------------|Geometry convergence|-------------------------
          Item                value                   Tolerance       Converged
          ---------------------------------------------------------------------
          Energy change      -0.0105651758            0.0000050000      NO
          RMS gradient        0.0030222770            0.0001000000      NO
          MAX gradient        0.0093725654            0.0003000000      NO
          RMS step            0.0397359707            0.0020000000      NO
          MAX step            0.1078208049            0.0040000000      NO
          ........................................................
          Max(Bonds)      0.0191      Max(Angles)    4.22
          Max(Dihed)        6.18      Max(Improp)    0.00
          ---------------------------------------------------------------------

The optimization has not yet converged - more geometry cycles are needed


    ---------------------------------------------------------------------------
                         Redundant Internal Coordinates
                            (Angstroem and degrees)

        Definition                    Value    dE/dq     Step     New-Value
    ----------------------------------------------------------------------------
     1. B(C   1,C   0)                1.5182  0.003081 -0.0046    1.5136   
     2. B(C   2,C   0)                1.5398 -0.003279  0.0080    1.5478   
     3. B(C   3,C   0)                1.5311 -0.009373  0.0191    1.5503   
     4. B(H   4,C   0)                1.1145  0.001381 -0.0035    1.1110   
     5. B(H   5,C   1)                1.1046  0.001871 -0.0050    1.0995   
     6. B(H   6,C   1)                1.1038  0.001402 -0.0029    1.1009   
     7. B(H   7,C   2)                1.1032 -0.000742  0.0019    1.1051   
     8. B(H   8,C   2)                1.1075  0.000781 -0.0023    1.1052   
     9. B(H   9,C   2)                1.1070  0.001279 -0.0034    1.1036   
    10. B(H  10,C   3)                1.1056 -0.000168  0.0005    1.1060   
    11. B(H  11,C   3)                1.1070  0.001313 -0.0034    1.1035   
    12. B(H  12,C   3)                1.1082  0.001555 -0.0042    1.1040   
    13. A(C   1,C   0,H   4)          107.01  0.000196    0.13    107.14   
    14. A(C   2,C   0,H   4)          105.31  0.000078    0.05    105.36   
    15. A(C   1,C   0,C   2)          110.60 -0.002468    0.80    111.39   
    16. A(C   1,C   0,C   3)          113.36  0.000877   -0.37    112.99   
    17. A(C   2,C   0,C   3)          112.87  0.001718   -0.60    112.27   
    18. A(C   3,C   0,H   4)          107.13 -0.000455    0.03    107.16   
    19. A(H   5,C   1,H   6)          109.30 -0.002609    4.22    113.52   
    20. A(C   0,C   1,H   6)          117.07 -0.003456    2.70    119.78   
    21. A(C   0,C   1,H   5)          116.79 -0.003263    2.72    119.51   
    22. A(H   7,C   2,H   9)          110.96  0.001893   -1.66    109.30   
    23. A(C   0,C   2,H   9)          111.68 -0.000225   -0.17    111.50   
    24. A(H   7,C   2,H   8)          106.96 -0.000146    0.49    107.45   
    25. A(C   0,C   2,H   8)          108.56 -0.004830    1.96    110.53   
    26. A(H   8,C   2,H   9)          105.34 -0.000476    1.14    106.48   
    27. A(C   0,C   2,H   7)          112.91  0.003293   -1.29    111.62   
    28. A(H  11,C   3,H  12)          105.06 -0.002493    1.05    106.12   
    29. A(H  10,C   3,H  12)          105.60 -0.002577    0.76    106.35   
    30. A(C   0,C   3,H  12)          112.24  0.000049    0.16    112.40   
    31. A(H  10,C   3,H  11)          106.28 -0.002978    0.47    106.76   
    32. A(C   0,C   3,H  11)          113.45  0.002569   -0.74    112.71   
    33. A(C   0,C   3,H  10)          113.49  0.004495   -1.39    112.10   
    34. D(H   6,C   1,C   0,C   3)     -1.78 -0.006087    5.10      3.32   
    35. D(H   6,C   1,C   0,H   4)   -119.66 -0.006158    5.18   -114.47   
    36. D(H   6,C   1,C   0,C   2)    126.14 -0.005113    4.67    130.81   
    37. D(H   5,C   1,C   0,H   4)    107.97  0.005768   -5.66    102.31   
    38. D(H   5,C   1,C   0,C   2)     -6.23  0.006813   -6.18    -12.41   
    39. D(H   5,C   1,C   0,C   3)   -134.15  0.005839   -5.75   -139.89   
    40. D(H   7,C   2,C   0,C   1)    -77.98  0.000652    0.70    -77.29   
    41. D(H   9,C   2,C   0,C   1)    156.15 -0.004335    4.24    160.39   
    42. D(H   8,C   2,C   0,H   4)    -74.83  0.000195    1.31    -73.52   
    43. D(H   8,C   2,C   0,C   1)     40.44 -0.000718    1.85     42.30   
    44. D(H   7,C   2,C   0,H   4)    166.74  0.001565    0.16    166.90   
    45. D(H   7,C   2,C   0,C   3)     50.20  0.001177    0.40     50.60   
[...]

             **** THE GBW FILE WAS UPDATED (orca0.gbw) ****
             **** DENSITY FILE WAS UPDATED (orca0.scfp) ****
             **** ENERGY FILE WAS UPDATED (orca0.en.tmp) ****
             **** THE GBW FILE WAS UPDATED (orca0.gbw) ****
             **** DENSITY FILE WAS UPDATED (orca0.scfp) ****
----------------
ORBITAL ENERGIES
----------------
                 SPIN UP ORBITALS
  NO   OCC          E(Eh)            E(eV) 
   0   1.0000     -10.188253      -277.2365 
   1   1.0000     -10.179639      -277.0021 
   2   1.0000     -10.168381      -276.6957 
   3   1.0000     -10.168177      -276.6902 
   4   1.0000      -0.793657       -21.5965 
   5   1.0000      -0.671757       -18.2794 
   6   1.0000      -0.661346       -17.9961 
   7   1.0000      -0.548858       -14.9352 
   8   1.0000      -0.455840       -12.4040 
   9   1.0000      -0.439282       -11.9535 
  10   1.0000      -0.430592       -11.7170 
  11   1.0000      -0.382455       -10.4071 
  12   1.0000      -0.367581       -10.0024 
  13   1.0000      -0.347054        -9.4438 
  14   1.0000      -0.338094        -9.2000 
  15   1.0000      -0.332798        -9.0559 
  16   1.0000      -0.201627        -5.4865 
  17   0.0000       0.059416         1.6168 
  18   0.0000       0.105318         2.8658 
  19   0.0000       0.107242         2.9182 
  20   0.0000       0.108292         2.9468 
  21   0.0000       0.123396         3.3578 
  22   0.0000       0.129267         3.5175 
  23   0.0000       0.147089         4.0025 
  24   0.0000       0.166154         4.5213 
  25   0.0000       0.180004         4.8982 
  26   0.0000       0.209919         5.7122 
  27   0.0000       0.256442         6.9781 
  28   0.0000       0.260227         7.0811 
  29   0.0000       0.404840        11.0163 
  30   0.0000       0.424319        11.5463 
  31   0.0000       0.426296        11.6001 
  32   0.0000       0.443764        12.0754 
  33   0.0000       0.482458        13.1284 
  34   0.0000       0.498751        13.5717 
  35   0.0000       0.558993        15.2110 
  36   0.0000       0.608834        16.5672 
  37   0.0000       0.647141        17.6096 
  38   0.0000       0.655122        17.8268 
  39   0.0000       0.657212        17.8837 
  40   0.0000       0.663911        18.0659 
  41   0.0000       0.672334        18.2951 
  42   0.0000       0.692292        18.8382 
  43   0.0000       0.704187        19.1619 
  44   0.0000       0.707059        19.2400 
  45   0.0000       0.719911        19.5898 
  46   0.0000       0.732395        19.9295 
  47   0.0000       0.750459        20.4210 
  48   0.0000       0.756676        20.5902 
  49   0.0000       0.763311        20.7708 
  50   0.0000       0.875187        23.8151 
  51   0.0000       0.935517        25.4567 
  52   0.0000       1.057605        28.7789 
  53   0.0000       1.064455        28.9653 
  54   0.0000       1.396715        38.0065 
  55   0.0000       1.488832        40.5132 
  56   0.0000       1.680529        45.7295 
  57   0.0000       1.745221        47.4899 
  58   0.0000       1.766609        48.0719 
  59   0.0000       1.856257        50.5113 
  60   0.0000       1.914531        52.0970 
  61   0.0000       1.941889        52.8415 
  62   0.0000       1.953345        53.1532 
  63   0.0000       1.990638        54.1680 
  64   0.0000       2.060353        56.0650 
  65   0.0000       2.093146        56.9574 
  66   0.0000       2.145104        58.3712 
  67   0.0000       2.154849        58.6364 
  68   0.0000       2.160171        58.7812 
  69   0.0000       2.428321        66.0780 
  70   0.0000       2.443040        66.4785 
  71   0.0000       2.465645        67.0936 
  72   0.0000       2.676236        72.8241 
  73   0.0000       2.691288        73.2337 

                 SPIN DOWN ORBITALS
  NO   OCC          E(Eh)            E(eV) 
   0   1.0000     -10.189218      -277.2627 
   1   1.0000     -10.167966      -276.6844 
   2   1.0000     -10.167767      -276.6790 
   3   1.0000     -10.165119      -276.6070 
   4   1.0000      -0.786674       -21.4065 
   5   1.0000      -0.671141       -18.2627 
   6   1.0000      -0.637870       -17.3573 
   7   1.0000      -0.538730       -14.6596 
   8   1.0000      -0.449777       -12.2391 
   9   1.0000      -0.433591       -11.7986 
  10   1.0000      -0.428129       -11.6500 
  11   1.0000      -0.381931       -10.3929 
  12   1.0000      -0.365008        -9.9324 
  13   1.0000      -0.340511        -9.2658 
  14   1.0000      -0.331412        -9.0182 
  15   1.0000      -0.330278        -8.9873 
  16   0.0000      -0.045402        -1.2355 
  17   0.0000       0.061956         1.6859 
  18   0.0000       0.107072         2.9136 
  19   0.0000       0.107773         2.9326 
  20   0.0000       0.115914         3.1542 
  21   0.0000       0.126775         3.4497 
  22   0.0000       0.131407         3.5758 
  23   0.0000       0.148727         4.0471 
  24   0.0000       0.166172         4.5218 
  25   0.0000       0.181382         4.9357 
  26   0.0000       0.212893         5.7931 
  27   0.0000       0.256977         6.9927 
  28   0.0000       0.268207         7.2983 
  29   0.0000       0.406746        11.0681 
  30   0.0000       0.427364        11.6292 
  31   0.0000       0.432057        11.7569 
  32   0.0000       0.444351        12.0914 
  33   0.0000       0.501622        13.6498 
  34   0.0000       0.539434        14.6788 
  35   0.0000       0.585689        15.9374 
  36   0.0000       0.619836        16.8666 
  37   0.0000       0.649105        17.6630 
  38   0.0000       0.657184        17.8829 
  39   0.0000       0.661710        18.0060 
  40   0.0000       0.668776        18.1983 
  41   0.0000       0.681711        18.5503 
  42   0.0000       0.693205        18.8631 
  43   0.0000       0.707871        19.2622 
  44   0.0000       0.709906        19.3175 
  45   0.0000       0.719903        19.5896 
  46   0.0000       0.735212        20.0061 
  47   0.0000       0.753323        20.4990 
  48   0.0000       0.763298        20.7704 
  49   0.0000       0.769423        20.9371 
  50   0.0000       0.882896        24.0248 
  51   0.0000       0.938737        25.5443 
  52   0.0000       1.063184        28.9307 
  53   0.0000       1.067302        29.0428 
  54   0.0000       1.410829        38.3906 
  55   0.0000       1.489504        40.5315 
  56   0.0000       1.730181        47.0806 
  57   0.0000       1.748165        47.5700 
  58   0.0000       1.779304        48.4173 
  59   0.0000       1.871122        50.9158 
  60   0.0000       1.926325        52.4180 
  61   0.0000       1.954656        53.1889 
  62   0.0000       1.980096        53.8812 
  63   0.0000       2.012186        54.7544 
  64   0.0000       2.085198        56.7411 
  65   0.0000       2.102300        57.2065 
  66   0.0000       2.145955        58.3944 
  67   0.0000       2.161349        58.8133 
  68   0.0000       2.164299        58.8936 
  69   0.0000       2.438074        66.3434 
  70   0.0000       2.454148        66.7807 
  71   0.0000       2.468508        67.1715 
  72   0.0000       2.682967        73.0072 
  73   0.0000       2.692526        73.2674 

                    ********************************
                    * MULLIKEN POPULATION ANALYSIS *
                    ********************************

------------------------------------------
FOD BASED MULLIKEN REDUCED ORBITAL CHARGES
------------------------------------------
  0 C s       :    -0.000000  s :    -0.000000
      pz      :     0.000000  p :     0.000000
      px      :     0.000000
      py      :     0.000000
      dz2     :     0.000000  d :     0.000000
      dxz     :     0.000000
      dyz     :     0.000000
      dx2y2   :     0.000000
      dxy     :     0.000000
  1 C s       :    -0.000000  s :    -0.000000
      pz      :     0.000000  p :     0.000000
      px      :     0.000000
      py      :     0.000000
      dz2     :     0.000000  d :     0.000000
      dxz     :     0.000000
      dyz     :     0.000000
      dx2y2   :     0.000000
      dxy     :     0.000000
  2 C s       :    -0.000000  s :    -0.000000
      pz      :     0.000000  p :     0.000000
      px      :     0.000000
      py      :     0.000000
      dz2     :     0.000000  d :     0.000000
      dxz     :     0.000000
      dyz     :     0.000000
      dx2y2   :     0.000000
      dxy     :     0.000000
  3 C s       :    -0.000000  s :    -0.000000
      pz      :     0.000000  p :     0.000000
      px      :     0.000000
      py      :     0.000000
      dz2     :     0.000000  d :     0.000000
      dxz     :     0.000000
      dyz     :     0.000000
      dx2y2   :     0.000000
      dxy     :     0.000000
  4 H s       :     0.000000  s :     0.000000
  5 H s       :     0.000000  s :     0.000000
  6 H s       :     0.000000  s :     0.000000
  7 H s       :     0.000000  s :     0.000000
  8 H s       :     0.000000  s :     0.000000
  9 H s       :     0.000000  s :     0.000000
 10 H s       :     0.000000  s :     0.000000
 11 H s       :     0.000000  s :     0.000000
 12 H s       :     0.000000  s :     0.000000


                     *******************************
                     * LOEWDIN POPULATION ANALYSIS *
                     *******************************

-------------------------------------------
LOEWDIN ATOMIC CHARGES AND SPIN POPULATIONS
-------------------------------------------
   0 C :   -0.159330   -0.013536
   1 C :   -0.223564    0.979332
   2 C :   -0.307323    0.014147
   3 C :   -0.308981    0.014406
   4 H :    0.115828    0.053703
   5 H :    0.111850   -0.025655
   6 H :    0.111584   -0.025576
   7 H :    0.110121    0.001286
   8 H :    0.110239   -0.000429
   9 H :    0.109232    0.000667
  10 H :    0.110006    0.001386
  11 H :    0.110719   -0.000421
  12 H :    0.109620    0.000690

----------------------------------------------------
LOEWDIN REDUCED ORBITAL CHARGES AND SPIN POPULATIONS
----------------------------------------------------
CHARGE
  0 C s       :     2.876013  s :     2.876013
      pz      :     1.063468  p :     3.171502
      px      :     1.051336
      py      :     1.056697
      dz2     :     0.028231  d :     0.111816
      dxz     :     0.013112
      dyz     :     0.021489
      dx2y2   :     0.026548
      dxy     :     0.022436
  1 C s       :     3.017556  s :     3.017556
      pz      :     1.027422  p :     3.148955
      px      :     1.074223
      py      :     1.047311
      dz2     :     0.008109  d :     0.057053
      dxz     :     0.007334
      dyz     :     0.008352
      dx2y2   :     0.016028
      dxy     :     0.017231
  2 C s       :     2.957896  s :     2.957896
      pz      :     1.114083  p :     3.276733
      px      :     1.056177
      py      :     1.106473
      dz2     :     0.013953  d :     0.072694
      dxz     :     0.012316
      dyz     :     0.015500
      dx2y2   :     0.014942
      dxy     :     0.015984
  3 C s       :     2.958039  s :     2.958039
      pz      :     1.112583  p :     3.278303
      px      :     1.094196
      py      :     1.071523
      dz2     :     0.017383  d :     0.072639
      dxz     :     0.004382
      dyz     :     0.019402
      dx2y2   :     0.021052
      dxy     :     0.010421
  4 H s       :     0.884172  s :     0.884172
  5 H s       :     0.888150  s :     0.888150
  6 H s       :     0.888416  s :     0.888416
  7 H s       :     0.889879  s :     0.889879
  8 H s       :     0.889761  s :     0.889761
  9 H s       :     0.890768  s :     0.890768
 10 H s       :     0.889994  s :     0.889994
 11 H s       :     0.889281  s :     0.889281
 12 H s       :     0.890380  s :     0.890380

SPIN
  0 C s       :    -0.004813  s :    -0.004813
      pz      :    -0.010011  p :    -0.026181
      px      :    -0.004048
      py      :    -0.012122
      dz2     :     0.013486  d :     0.017458
      dxz     :     0.000547
      dyz     :     0.001711
      dx2y2   :     0.000786
      dxy     :     0.000928
  1 C s       :     0.039839  s :     0.039839
      pz      :     0.635743  p :     0.943347
      px      :     0.127719
      py      :     0.179885
      dz2     :    -0.000566  d :    -0.003854
      dxz     :    -0.000750
      dyz     :    -0.001222
      dx2y2   :    -0.000576
      dxy     :    -0.000740
  2 C s       :     0.004815  s :     0.004815
      pz      :     0.001470  p :     0.009467
      px      :     0.007377
      py      :     0.000619
      dz2     :     0.000145  d :    -0.000135
      dxz     :    -0.000189
      dyz     :     0.000034
      dx2y2   :    -0.000042
      dxy     :    -0.000083
  3 C s       :     0.004961  s :     0.004961
      pz      :     0.000525  p :     0.009576
      px      :     0.004989
      py      :     0.004062
      dz2     :     0.000165  d :    -0.000131
      dxz     :    -0.000010
      dyz     :    -0.000205
      dx2y2   :    -0.000030
      dxy     :    -0.000050
  4 H s       :     0.053703  s :     0.053703
  5 H s       :    -0.025655  s :    -0.025655
  6 H s       :    -0.025576  s :    -0.025576
  7 H s       :     0.001286  s :     0.001286
  8 H s       :    -0.000429  s :    -0.000429
  9 H s       :     0.000667  s :     0.000667
 10 H s       :     0.001386  s :     0.001386
 11 H s       :    -0.000421  s :    -0.000421
 12 H s       :     0.000690  s :     0.000690


                      *****************************
                      * MAYER POPULATION ANALYSIS *
                      *****************************

  NA   - Mulliken gross atomic population
  ZA   - Total nuclear charge
  QA   - Mulliken gross atomic charge
  VA   - Mayer's total valence
  BVA  - Mayer's bonded valence
  FA   - Mayer's free valence

  ATOM       NA         ZA         QA         VA         BVA        FA
  0 C      6.0906     6.0000    -0.0906     4.1912     4.1883     0.0030
  1 C      6.2389     6.0000    -0.2389     3.8832     2.9984     0.8847
  2 C      6.2402     6.0000    -0.2402     3.9553     3.9552     0.0002
  3 C      6.2472     6.0000    -0.2472     3.9546     3.9545     0.0002
  4 H      0.9234     1.0000     0.0766     0.9352     0.9316     0.0036
  5 H      0.8987     1.0000     0.1013     0.9537     0.9509     0.0028
  6 H      0.9000     1.0000     0.1000     0.9537     0.9509     0.0028
  7 H      0.9115     1.0000     0.0885     0.9620     0.9619     0.0000
  8 H      0.9080     1.0000     0.0920     0.9547     0.9547     0.0000
  9 H      0.9124     1.0000     0.0876     0.9579     0.9579     0.0000
 10 H      0.9134     1.0000     0.0866     0.9631     0.9631     0.0000
 11 H      0.9051     1.0000     0.0949     0.9545     0.9545     0.0000
 12 H      0.9106     1.0000     0.0894     0.9574     0.9574     0.0000

  Mayer bond orders larger than 0.100000
B(  0-C ,  1-C ) :   1.0802 B(  0-C ,  2-C ) :   1.0912 B(  0-C ,  3-C ) :   1.0911 
B(  0-C ,  4-H ) :   0.8974 B(  1-C ,  5-H ) :   0.9412 B(  1-C ,  6-H ) :   0.9413 
B(  2-C ,  7-H ) :   0.9587 B(  2-C ,  8-H ) :   0.9574 B(  2-C ,  9-H ) :   0.9579 
B(  3-C , 10-H ) :   0.9584 B(  3-C , 11-H ) :   0.9577 B(  3-C , 12-H ) :   0.9575 


-------
TIMINGS
-------

Total SCF time: 0 days 0 hours 3 min 18 sec 

Total time                  ....     198.553 sec
Sum of individual times     ....     163.436 sec  ( 82.3%)

Fock matrix formation       ....     135.736 sec  ( 68.4%)
  XC integration            ....      57.951 sec  ( 42.7% of F)
    Basis function eval.    ....       1.062 sec  (  1.8% of XC)
    Density eval.           ....       0.707 sec  (  1.2% of XC)
    XC-Functional eval.     ....       0.473 sec  (  0.8% of XC)
    XC-Potential eval.      ....       0.994 sec  (  1.7% of XC)
Diagonalization             ....       4.304 sec  (  2.2%)
Density matrix formation    ....       7.407 sec  (  3.7%)
Population analysis         ....       8.120 sec  (  4.1%)
Initial guess               ....       0.003 sec  (  0.0%)
Orbital Transformation      ....       0.000 sec  (  0.0%)
Orbital Orthonormalization  ....       0.002 sec  (  0.0%)
DIIS solution               ....       3.270 sec  (  1.6%)
Grid generation             ....       4.595 sec  (  2.3%)


-------------------------------------------------------------------------------
                          DFT DISPERSION CORRECTION                            
                                                                               
                              DFTD3 V3.1  Rev 1                                
                          USING Becke-Johnson damping                          
-------------------------------------------------------------------------------
The B3LYP functional is recognized
Active option DFTDOPT                   ...         4   

molecular C6(AA) [au] = 1132.638982 


            DFT-D V3
 parameters
 s6 scaling factor         :     1.0000 
 a1 scaling factor         :     0.3981 
 s8 scaling factor         :     1.9889 
 a2 scaling factor         :     4.4211 
 ad hoc parameters k1-k3   :    16.0000     1.3333    -4.0000 

 Edisp/kcal,au: -9.020856074080  -0.014375647675 
 E6   /kcal   :  -4.465547158 
 E8   /kcal   :  -4.555308916 
 % E8         :  50.497523504 

-------------------------   ----------------
Dispersion correction           -0.014375648
-------------------------   ----------------


-------------------------   --------------------
FINAL SINGLE POINT ENERGY      -157.545310209471
-------------------------   --------------------

                                *** OPTIMIZATION RUN DONE ***

                            ***************************************
                            *     ORCA property calculations      *
                            ***************************************

                                    ---------------------
                                    Active property flags
                                    ---------------------
   (+) Dipole Moment


------------------------------------------------------------------------------
                       ORCA ELECTRIC PROPERTIES CALCULATION
------------------------------------------------------------------------------

Dipole Moment Calculation                       ... on
Quadrupole Moment Calculation                   ... off
Polarizability Calculation                      ... off
GBWName                                         ... orca0.gbw
Electron density file                           ... orca0.scfp
The origin for moment calculation is the CENTER OF MASS  = (-0.068076, -0.125290  0.107912)

-------------
DIPOLE MOMENT
-------------
                                X             Y             Z
Electronic contribution:      0.47432       1.08717       0.00622
Nuclear contribution   :     -0.46634      -1.11225      -0.11241
                        -----------------------------------------
Total Dipole Moment    :      0.00798      -0.02509      -0.10619
                        -----------------------------------------
Magnitude (a.u.)       :      0.10940
Magnitude (Debye)      :      0.27808



--------------------
Rotational spectrum 
--------------------
 
Rotational constants in cm-1:     0.278935     0.261983     0.152956 
Rotational constants in MHz :  8362.246196  7854.064279  4585.498932 

 Dipole components along the rotational axes: 
x,y,z [a.u.] :    -0.001658    -0.051526    -0.096497 
x,y,z [Debye]:    -0.004215    -0.130970    -0.245275 

 

Timings for individual modules:

Sum of individual times         ...     8020.831 sec (= 133.681 min)
GTO integral calculation        ...      178.061 sec (=   2.968 min)   2.2 %
SCF iterations                  ...     7648.326 sec (= 127.472 min)  95.4 %
SCF Gradient evaluation         ...      104.399 sec (=   1.740 min)   1.3 %
Geometry relaxation             ...       90.046 sec (=   1.501 min)   1.1 %
                             ****ORCA TERMINATED NORMALLY****
TOTAL RUN TIME: 0 days 2 hours 18 minutes 16 seconds 502 msec
