
                                 *****************
                                 * O   R   C   A *
                                 *****************

           --- An Ab Initio, DFT and Semiempirical electronic structure package ---

                  #######################################################
                  #                        -***-                        #
                  #          Department of theory and spectroscopy      #
                  #               Directorship: Frank Neese             #
                  #        Max Planck Institute fuer Kohlenforschung    #
                  #                Kaiser Wilhelm Platz 1               #
                  #                 D-45470 Muelheim/Ruhr               #
                  #                      Germany                        #
                  #                                                     #
                  #                  All rights reserved                #
                  #                        -***-                        #
                  #######################################################


                         Program Version 4.2.1 -  RELEASE  -


 With contributions from (in alphabetic order):
   Daniel Aravena         : Magnetic Suceptibility
   Michael Atanasov       : Ab Initio Ligand Field Theory (pilot matlab implementation)
   Alexander A. Auer      : GIAO ZORA, VPT2
   Ute Becker             : Parallelization
   Giovanni Bistoni       : ED, misc. LED, open-shell LED, HFLD
   Martin Brehm           : Molecular dynamics
   Dmytro Bykov           : SCF Hessian
   Vijay G. Chilkuri      : MRCI spin determinant printing, contributions to CSF-ICE
   Dipayan Datta          : RHF DLPNO-CCSD density
   Achintya Kumar Dutta   : EOM-CC, STEOM-CC
   Dmitry Ganyushin       : Spin-Orbit,Spin-Spin,Magnetic field MRCI
   Miquel Garcia          : C-PCM Hessian, Gaussian charge scheme
   Yang Guo               : DLPNO-NEVPT2, CIM, IAO-localization
   Andreas Hansen         : Spin unrestricted coupled pair/coupled cluster methods
   Benjamin Helmich-Paris : CASSCF linear response (MC-RPA)
   Lee Huntington         : MR-EOM, pCC
   Robert Izsak           : Overlap fitted RIJCOSX, COSX-SCS-MP3, EOM
   Christian Kollmar      : KDIIS, OOCD, Brueckner-CCSD(T), CCSD density
   Simone Kossmann        : Meta GGA functionals, TD-DFT gradient, OOMP2, MP2 Hessian
   Martin Krupicka        : AUTO-CI
   Lucas Lang             : DCDCAS
   Dagmar Lenk            : GEPOL surface, SMD
   Dimitrios Liakos       : Extrapolation schemes; Compound Job, initial MDCI parallelization
   Dimitrios Manganas     : Further ROCIS development; embedding schemes
   Dimitrios Pantazis     : SARC Basis sets
   Taras Petrenko         : DFT Hessian,TD-DFT gradient, ASA, ECA, R-Raman, ABS, FL, XAS/XES, NRVS
   Peter Pinski           : DLPNO-MP2, DLPNO-MP2 Gradient
   Christoph Reimann      : Effective Core Potentials
   Marius Retegan         : Local ZFS, SOC
   Christoph Riplinger    : Optimizer, TS searches, QM/MM, DLPNO-CCSD(T), (RO)-DLPNO pert. Triples
   Tobias Risthaus        : Range-separated hybrids, TD-DFT gradient, RPA, STAB
   Michael Roemelt        : Original ROCIS implementation
   Masaaki Saitow         : Open-shell DLPNO-CCSD energy and density
   Barbara Sandhoefer     : DKH picture change effects
   Avijit Sen             : IP-ROCIS
   Kantharuban Sivalingam : CASSCF convergence, NEVPT2, FIC-MRCI
   Bernardo de Souza      : ESD, SOC TD-DFT
   Georgi Stoychev        : AutoAux, RI-MP2 NMR
   Willem Van den Heuvel  : Paramagnetic NMR
   Boris Wezisla          : Elementary symmetry handling
   Frank Wennmohs         : Technical directorship


 We gratefully acknowledge several colleagues who have allowed us to
 interface, adapt or use parts of their codes:
   Stefan Grimme, W. Hujo, H. Kruse,             : VdW corrections, initial TS optimization,
                  C. Bannwarth                     DFT functionals, gCP, sTDA/sTD-DF
   Ed Valeev, F. Pavosevic, A. Kumar             : LibInt (2-el integral package), F12 methods
   Garnet Chan, S. Sharma, J. Yang, R. Olivares  : DMRG
   Ulf Ekstrom                                   : XCFun DFT Library
   Mihaly Kallay                                 : mrcc  (arbitrary order and MRCC methods)
   Andreas Klamt, Michael Diedenhofen            : otool_cosmo (COSMO solvation model)
   Jiri Pittner, Ondrej Demel                    : Mk-CCSD
   Frank Weinhold                                : gennbo (NPA and NBO analysis)
   Christopher J. Cramer and Donald G. Truhlar   : smd solvation model
   Lars Goerigk                                  : TD-DFT with DH, B97 family of functionals
   V. Asgeirsson, H. Jonsson                     : NEB implementation
   FAccTs GmbH                                   : IRC, NEB, NEB-TS, Multilevel, MM, QM/MM, CI optimization
   S Lehtola, MJT Oliveira, MAL Marques          : LibXC Library


 Your calculation uses the libint2 library for the computation of 2-el integrals
 For citations please refer to: http://libint.valeyev.net

 Your ORCA version has been built with support for libXC version: 4.2.3
 For citations please refer to: https://tddft.org/programs/libxc/

 This ORCA versions uses:
   CBLAS   interface :  Fast vector & matrix operations
   LAPACKE interface :  Fast linear algebra routines
   SCALAPACK package :  Parallel linear algebra routines


Your calculation utilizes the atom-pairwise dispersion correction
with the Becke-Johnson damping scheme (D3BJ)
Cite in your paper:
S.Grimme, S.Ehrlich, L.Goerigk, J Comput Chem, (2011), 32, 1456–1465 
S.Grimme, J.Antony, S.Ehrlich and H.Krieg, J.Chem.Phys., 132, (2010), 154104 
   

----- Orbital basis set information -----
Your calculation utilizes the basis: def2-SV(P)
   F. Weigend and R. Ahlrichs, Phys. Chem. Chem. Phys. 7, 3297 (2005).

----- AuxJ basis set information -----
Your calculation utilizes the auxiliary basis: def2/J
   F. Weigend, Phys. Chem. Chem. Phys. 8, 1057 (2006).

================================================================================
                                        WARNINGS
                       Please study these warnings very carefully!
================================================================================


WARNING: Geometry Optimization
  ===> : Switching off AutoStart
         For restart on a previous wavefunction, please use MOREAD

INFO   : the flag for use of LIBINT has been found!

================================================================================
                                       INPUT FILE
================================================================================
NAME = orca7.inp
|  1> ! UKS B3LYP def2-SV(P) def2/J D3BJ Opt
|  2> %scf Convergence VeryTight
|  3> SmearTemp 2000
|  4> maxiter 500
|  5> end
|  6> *xyz 0 2
|  7> C 0.024603 0.214771 -0.372798
|  8> C -1.024911 0.970544 0.382899
|  9> C 1.381332 0.232782 0.271012
| 10> C -0.37258 -1.246405 -0.453696
| 11> H 0.139795 0.657493 -1.39354
| 12> H -0.932805 2.062795 0.320312
| 13> H -2.012992 0.658537 -0.029407
| 14> H 1.743671 1.243255 0.527407
| 15> H 2.089131 -0.181837 -0.491799
| 16> H 1.45545 -0.419731 1.171073
| 17> H -0.035461 -1.721106 -1.394692
| 18> H -1.47903 -1.373403 -0.426595
| 19> H 0.012885 -1.757647 0.455316
| 20> *
| 21> 
| 22>                          ****END OF INPUT****
================================================================================

                       *****************************
                       * Geometry Optimization Run *
                       *****************************

Geometry optimization settings:
Update method            Update   .... BFGS
Choice of coordinates    CoordSys .... Z-matrix Internals
Initial Hessian          InHess   .... Almoef's Model

Convergence Tolerances:
Energy Change            TolE     ....  5.0000e-06 Eh
Max. Gradient            TolMAXG  ....  3.0000e-04 Eh/bohr
RMS Gradient             TolRMSG  ....  1.0000e-04 Eh/bohr
Max. Displacement        TolMAXD  ....  4.0000e-03 bohr
RMS Displacement         TolRMSD  ....  2.0000e-03 bohr
Strict Convergence                ....  False
------------------------------------------------------------------------------
                        ORCA OPTIMIZATION COORDINATE SETUP
------------------------------------------------------------------------------

The optimization will be done in new redundant internal coordinates
Making redundant internal coordinates   ...  (new redundants) done
Evaluating the initial hessian          ...  (Almloef) done
Evaluating the coordinates              ...  done
Calculating the B-matrix                .... done
Calculating the G-matrix                .... done
Diagonalizing the G-matrix              .... done
The first mode is                       ....   24
The number of degrees of freedom        ....   33

    -----------------------------------------------------------------
                    Redundant Internal Coordinates


    -----------------------------------------------------------------
         Definition                    Initial Value    Approx d2E/dq
    -----------------------------------------------------------------
      1. B(C   1,C   0)                  1.4979         0.420307   
      2. B(C   2,C   0)                  1.5018         0.414287   
      3. B(C   3,C   0)                  1.5164         0.392777   
      4. B(H   4,C   0)                  1.1186         0.324228   
      5. B(H   5,C   1)                  1.0979         0.349783   
      6. B(H   6,C   1)                  1.1152         0.328272   
      7. B(H   7,C   2)                  1.1037         0.342465   
      8. B(H   8,C   2)                  1.1202         0.322327   
      9. B(H   9,C   2)                  1.1142         0.329504   
     10. B(H  10,C   3)                  1.1066         0.338853   
     11. B(H  11,C   3)                  1.1140         0.329657   
     12. B(H  12,C   3)                  1.1119         0.332301   
     13. A(C   1,C   0,H   4)          109.4409         0.325009   
     14. A(C   2,C   0,H   4)          107.0624         0.324239   
     15. A(C   1,C   0,C   2)          114.2445         0.377444   
     16. A(C   1,C   0,C   3)          109.2434         0.373984   
     17. A(C   2,C   0,C   3)          105.7268         0.373055   
     18. A(C   3,C   0,H   4)          111.0807         0.321418   
     19. A(H   5,C   1,H   6)          109.3653         0.285360   
     20. A(C   0,C   1,H   6)          107.0439         0.325672   
     21. A(C   0,C   1,H   5)          114.4822         0.329096   
     22. A(H   7,C   2,H   9)          109.0679         0.284588   
     23. A(C   0,C   2,H   9)          113.5390         0.325100   
     24. A(H   7,C   2,H   8)          106.8364         0.283616   
     25. A(C   0,C   2,H   8)          105.9295         0.323927   
     26. A(H   8,C   2,H   9)          106.9364         0.281923   
     27. A(C   0,C   2,H   7)          114.0259         0.327171   
     28. A(H  11,C   3,H  12)          105.7841         0.283279   
     29. A(H  10,C   3,H  12)          113.1016         0.284493   
     30. A(C   0,C   3,H  12)          107.9778         0.322715   
     31. A(H  10,C   3,H  11)          105.9241         0.284140   
     32. A(C   0,C   3,H  11)          111.6354         0.322293   
     33. A(C   0,C   3,H  10)          112.2685         0.323750   
     34. D(H   6,C   1,C   0,C   3)    -46.7923         0.013062   
     35. D(H   6,C   1,C   0,H   4)     75.0251         0.013062   
     36. D(H   6,C   1,C   0,C   2)   -164.9612         0.013062   
     37. D(H   5,C   1,C   0,H   4)    -46.3529         0.013062   
     38. D(H   5,C   1,C   0,C   2)     73.6607         0.013062   
     39. D(H   5,C   1,C   0,C   3)   -168.1704         0.013062   
     40. D(H   7,C   2,C   0,C   1)    -51.6866         0.013588   
     41. D(H   9,C   2,C   0,C   1)     74.0690         0.013588   
     42. D(H   8,C   2,C   0,H   4)    -47.5445         0.013588   
     43. D(H   8,C   2,C   0,C   1)   -168.8807         0.013588   
     44. D(H   7,C   2,C   0,H   4)     69.6496         0.013588   
     45. D(H   7,C   2,C   0,C   3)   -171.8411         0.013588   
     46. D(H   9,C   2,C   0,C   3)    -46.0856         0.013588   
     47. D(H   9,C   2,C   0,H   4)   -164.5949         0.013588   
     48. D(H   8,C   2,C   0,C   3)     70.9647         0.013588   
     49. D(H  12,C   3,C   0,H   4)    151.6844         0.012258   
     50. D(H  12,C   3,C   0,C   1)    -87.4929         0.012258   
     51. D(H  11,C   3,C   0,H   4)    -92.4439         0.012258   
     52. D(H  11,C   3,C   0,C   2)    151.7558         0.012258   
     53. D(H  11,C   3,C   0,C   1)     28.3788         0.012258   
     54. D(H  10,C   3,C   0,H   4)     26.3307         0.012258   
     55. D(H  12,C   3,C   0,C   2)     35.8842         0.012258   
     56. D(H  10,C   3,C   0,C   2)    -89.4696         0.012258   
     57. D(H  10,C   3,C   0,C   1)    147.1534         0.012258   
    -----------------------------------------------------------------

Number of atoms                         .... 13
Number of degrees of freedom            .... 57

Time needed for optimization step       :     5.17 sec

         *************************************************************
         *                GEOMETRY OPTIMIZATION CYCLE   1            *
         *************************************************************
---------------------------------
CARTESIAN COORDINATES (ANGSTROEM)
---------------------------------
  C      0.024603    0.214771   -0.372798
  C     -1.024911    0.970544    0.382899
  C      1.381332    0.232782    0.271012
  C     -0.372580   -1.246405   -0.453696
  H      0.139795    0.657493   -1.393540
  H     -0.932805    2.062795    0.320312
  H     -2.012992    0.658537   -0.029407
  H      1.743671    1.243255    0.527407
  H      2.089131   -0.181837   -0.491799
  H      1.455450   -0.419731    1.171073
  H     -0.035461   -1.721106   -1.394692
  H     -1.479030   -1.373403   -0.426595
  H      0.012885   -1.757647    0.455316

----------------------------
CARTESIAN COORDINATES (A.U.)
----------------------------
  NO LB      ZA    FRAG     MASS         X           Y           Z
   0 C     6.0000    0    12.011    0.046493    0.405858   -0.704486
   1 C     6.0000    0    12.011   -1.936801    1.834062    0.723574
   2 C     6.0000    0    12.011    2.610339    0.439894    0.512138
   3 C     6.0000    0    12.011   -0.704074   -2.355364   -0.857361
   4 H     1.0000    0     1.008    0.264174    1.242482   -2.633409
   5 H     1.0000    0     1.008   -1.762746    3.898118    0.605302
   6 H     1.0000    0     1.008   -3.804004    1.244455   -0.055571
   7 H     1.0000    0     1.008    3.295061    2.349411    0.996655
   8 H     1.0000    0     1.008    3.947885   -0.343622   -0.929365
   9 H     1.0000    0     1.008    2.750402   -0.793177    2.213007
  10 H     1.0000    0     1.008   -0.067012   -3.252419   -2.635586
  11 H     1.0000    0     1.008   -2.794962   -2.595356   -0.806148
  12 H     1.0000    0     1.008    0.024349   -3.321471    0.860423

--------------------------------
INTERNAL COORDINATES (ANGSTROEM)
--------------------------------
 C      0   0   0     0.000000000000     0.00000000     0.00000000
 C      1   0   0     1.497915357934     0.00000000     0.00000000
 C      1   2   0     1.501841966274   114.24447573     0.00000000
 C      1   2   3     1.516355540389   109.24338563   118.16890655
 H      1   2   3     1.118564346255   109.44093944   239.98636391
 H      2   1   3     1.097912972328   114.48215850    73.66073429
 H      2   1   3     1.115189969577   107.04393018   195.03877372
 H      3   1   2     1.103668261152   114.02591321   308.31343952
 H      3   1   2     1.120164702748   105.92953436   191.11927334
 H      3   1   2     1.114170766451   113.53897630    74.06895676
 H      4   1   2     1.106554893161   112.26853478   147.15335267
 H      4   1   2     1.114044235524   111.63535474    28.37877469
 H      4   1   2     1.111869805748   107.97776156   272.50710023

---------------------------
INTERNAL COORDINATES (A.U.)
---------------------------
 C      0   0   0     0.000000000000     0.00000000     0.00000000
 C      1   0   0     2.830649798290     0.00000000     0.00000000
 C      1   2   0     2.838070012688   114.24447573     0.00000000
 C      1   2   3     2.865496692990   109.24338563   118.16890655
 H      1   2   3     2.113780277590   109.44093944   239.98636391
 H      2   1   3     2.074754836579   114.48215850    73.66073429
 H      2   1   3     2.107403629797   107.04393018   195.03877372
 H      3   1   2     2.085630756279   114.02591321   308.31343952
 H      3   1   2     2.116804513079   105.92953436   191.11927334
 H      3   1   2     2.105477615014   113.53897630    74.06895676
 H      4   1   2     2.091085700224   112.26853478   147.15335267
 H      4   1   2     2.105238506215   111.63535474    28.37877469
 H      4   1   2     2.101129429439   107.97776156   272.50710023

---------------------
BASIS SET INFORMATION
---------------------
There are 2 groups of distinct atoms

 Group   1 Type C   : 7s4p1d contracted to 3s2p1d pattern {511/31/1}
 Group   2 Type H   : 4s contracted to 2s pattern {31}

Atom   0C    basis set group =>   1
Atom   1C    basis set group =>   1
Atom   2C    basis set group =>   1
Atom   3C    basis set group =>   1
Atom   4H    basis set group =>   2
Atom   5H    basis set group =>   2
Atom   6H    basis set group =>   2
Atom   7H    basis set group =>   2
Atom   8H    basis set group =>   2
Atom   9H    basis set group =>   2
Atom  10H    basis set group =>   2
Atom  11H    basis set group =>   2
Atom  12H    basis set group =>   2
---------------------------------
AUXILIARY/J BASIS SET INFORMATION
---------------------------------
There are 2 groups of distinct atoms

 Group   1 Type C   : 12s5p4d2f1g contracted to 6s4p3d1f1g pattern {711111/2111/211/2/1}
 Group   2 Type H   : 5s2p1d contracted to 3s1p1d pattern {311/2/1}

Atom   0C    basis set group =>   1
Atom   1C    basis set group =>   1
Atom   2C    basis set group =>   1
Atom   3C    basis set group =>   1
Atom   4H    basis set group =>   2
Atom   5H    basis set group =>   2
Atom   6H    basis set group =>   2
Atom   7H    basis set group =>   2
Atom   8H    basis set group =>   2
Atom   9H    basis set group =>   2
Atom  10H    basis set group =>   2
Atom  11H    basis set group =>   2
Atom  12H    basis set group =>   2
------------------------------------------------------------------------------
                           ORCA GTO INTEGRAL CALCULATION
------------------------------------------------------------------------------

                         BASIS SET STATISTICS AND STARTUP INFO

 # of primitive gaussian shells          ...   84
 # of primitive gaussian functions       ...  132
 # of contracted shells                  ...   42
 # of contracted basis functions         ...   74
 Highest angular momentum                ...    2
 Maximum contraction depth               ...    5
 Integral package used                   ... LIBINT
 Integral threshhold            Thresh   ...  1.000e-12
 Primitive cut-off              TCut     ...  1.000e-14


------------------------------ INTEGRAL EVALUATION ----------------------------


 * One electron integrals 
 Pre-screening matrix                    ... done
 Shell pair data                         ... done (   0.000 sec)

-------------------------------------------------------------------------------
                                 ORCA SCF
-------------------------------------------------------------------------------

------------
SCF SETTINGS
------------
Hamiltonian:
 Density Functional     Method          .... DFT(GTOs)
 Exchange Functional    Exchange        .... B88
   X-Alpha parameter    XAlpha          ....  0.666667
   Becke's b parameter  XBeta           ....  0.004200
 Correlation Functional Correlation     .... LYP
 LDA part of GGA corr.  LDAOpt          .... VWN-5
 Gradients option       PostSCFGGA      .... off
 Hybrid DFT is turned on
   Fraction HF Exchange ScalHFX         ....  0.200000
   Scaling of DF-GGA-X  ScalDFX         ....  0.720000
   Scaling of DF-GGA-C  ScalDFC         ....  0.810000
   Scaling of DF-LDA-C  ScalLDAC        ....  1.000000
   Perturbative correction              ....  0.000000
   Density functional embedding theory  .... OFF
   NL short-range parameter             ....  4.800000


General Settings:
 Integral files         IntName         .... orca7
 Hartree-Fock type      HFTyp           .... UHF
 Total Charge           Charge          ....    0
 Multiplicity           Mult            ....    2
 Number of Electrons    NEL             ....   33
 Basis Dimension        Dim             ....   74
 Nuclear Repulsion      ENuc            ....    127.3852684202 Eh

Convergence Acceleration:
 DIIS                   CNVDIIS         .... on
   Start iteration      DIISMaxIt       ....    12
   Startup error        DIISStart       ....  0.200000
   # of expansion vecs  DIISMaxEq       ....     5
   Bias factor          DIISBfac        ....   1.050
   Max. coefficient     DIISMaxC        ....  10.000
 Newton-Raphson         CNVNR           .... off
 SOSCF                  CNVSOSCF        .... off
 Level Shifting         CNVShift        .... on
   Level shift para.    LevelShift      ....    0.2500
   Turn off err/grad.   ShiftErr        ....    0.0010
 Zerner damping         CNVZerner       .... off
 Static damping         CNVDamp         .... on
   Fraction old density DampFac         ....    0.7000
   Max. Damping (<1)    DampMax         ....    0.9800
   Min. Damping (>=0)   DampMin         ....    0.0000
   Turn off err/grad.   DampErr         ....    0.1000
 Fernandez-Rico         CNVRico         .... off

SCF Procedure:
 Maximum # iterations   MaxIter         ....   500
 SCF integral mode      SCFMode         .... Direct
   Integral package                     .... LIBINT
 Reset frequency        DirectResetFreq ....    20
 Integral Threshold     Thresh          ....  1.000e-12 Eh
 Primitive CutOff       TCut            ....  1.000e-14 Eh

Convergence Tolerance:
 Convergence Check Mode ConvCheckMode   .... Total+1el-Energy
 Convergence forced     ConvForced      .... 0
 Energy Change          TolE            ....  1.000e-09 Eh
 1-El. energy change                    ....  1.000e-06 Eh
 DIIS Error             TolErr          ....  1.000e-08


Diagonalization of the overlap matrix:
Smallest eigenvalue                        ... 1.990e-03
Time for diagonalization                   ...    0.001 sec
Threshold for overlap eigenvalues          ... 1.000e-08
Number of eigenvalues below threshold      ... 0
Time for construction of square roots      ...    6.218 sec
Total time needed                          ...    6.219 sec

-------------------
DFT GRID GENERATION
-------------------

General Integration Accuracy     IntAcc      ...  4.340
Radial Grid Type                 RadialGrid  ... Gauss-Chebyshev
Angular Grid (max. acc.)         AngularGrid ... Lebedev-110
Angular grid pruning method      GridPruning ... 3 (G Style)
Weight generation scheme         WeightScheme... Becke
Basis function cutoff            BFCut       ...    1.0000e-12
Integration weight cutoff        WCut        ...    1.0000e-14
Grids for H and He will be reduced by one unit

# of grid points (after initial pruning)     ...  13770 (   0.0 sec)
# of grid points (after weights+screening)   ...  12870 (   0.0 sec)
nearest neighbour list constructed           ...    0.0 sec
Grid point re-assignment to atoms done       ...    0.0 sec
Grid point division into batches done        ...    0.0 sec
Reduced shell lists constructed in    0.1 sec

Total number of grid points                  ...    12870
Total number of batches                      ...      207
Average number of points per batch           ...       62
Average number of grid points per atom       ...      990
Average number of shells per batch           ...    37.35 (88.93%)
Average number of basis functions per batch  ...    66.65 (90.07%)
Average number of large shells per batch     ...    32.93 (88.16%)
Average number of large basis fcns per batch ...    58.44 (87.68%)
Maximum spatial batch extension              ...  20.98, 20.83, 24.97 au
Average spatial batch extension              ...   4.30,  3.96,  4.09 au

Time for grid setup =    2.830 sec

------------------------------
INITIAL GUESS: MODEL POTENTIAL
------------------------------
Loading Hartree-Fock densities                     ... done
Calculating cut-offs                               ... done
Setting up the integral package                    ... done
Initializing the effective Hamiltonian             ... done
Starting the Coulomb interaction                   ... done (   0.0 sec)
Reading the grid                                   ... done
Mapping shells                                     ... done
Starting the XC term evaluation                    ... done (   0.1 sec)
  promolecular density results
     # of electrons  =     33.001989825
     EX              =    -23.189862852
     EC              =     -1.032514263
     EX+EC           =    -24.222377116
Transforming the Hamiltonian                       ... done (   0.8 sec)
Diagonalizing the Hamiltonian                      ... done (   0.0 sec)
Back transforming the eigenvectors                 ... done (   0.0 sec)
Now organizing SCF variables                       ... done
                      ------------------
                      INITIAL GUESS DONE (   3.8 sec)
                      ------------------
--------------
SCF ITERATIONS
--------------
ITER       Energy         Delta-E        Max-DP      RMS-DP      [F,P]     Damp
               ***  Starting incremental Fock matrix formation  ***
  0   -157.3601845180   0.000000000000 0.04281564  0.00209434  0.1723672 0.7000
  1   -157.4298953457  -0.069710827689 0.02628092  0.00150686  0.0886359 0.7000
                               ***Turning on DIIS***
  2   -157.4578368403  -0.027941494633 0.03632814  0.00252721  0.0322912 0.0000
  3   -157.4961487562  -0.038311915856 0.01777918  0.00103540  0.0488790 0.0000
  4   -157.5085867935  -0.012438037342 0.00604868  0.00031630  0.0094133 0.0000
  5   -157.5092156481  -0.000628854551 0.00173029  0.00011210  0.0020660 0.0000
  6   -157.5092658084  -0.000050160326 0.00132959  0.00007430  0.0006425 0.0000
  7   -157.5092761829  -0.000010374465 0.00045097  0.00001393  0.0002232 0.0000
  8   -157.5092771612  -0.000000978369 0.00013510  0.00000518  0.0000800 0.0000
  9   -157.5092772812  -0.000000119967 0.00006151  0.00000193  0.0000435 0.0000
 10   -157.5092773018  -0.000000020579 0.00002290  0.00000077  0.0000083 0.0000
 11   -157.5092773059  -0.000000004142 0.00001141  0.00000045  0.0000024 0.0000
 12   -157.5092773070  -0.000000001071 0.00000313  0.00000012  0.0000012 0.0000
 13   -157.5092773071  -0.000000000108 0.00000279  0.00000010  0.0000007 0.0000
 14   -157.5092773071  -0.000000000046 0.00000093  0.00000003  0.0000003 0.0000
 15   -157.5092773071   0.000000000005 0.00000058  0.00000002  0.0000001 0.0000
 16   -157.5092773071   0.000000000007 0.00000007  0.00000000  0.0000001 0.0000
                 **** Energy Check signals convergence ****

 Fermi smearing  (ALPHA): E(HOMO(Eh)) = -0.325910 MUE = -0.089069 gap=   7.809 eV
 Fermi smearing   (BETA): E(HOMO(Eh)) = -0.322311 MUE = -0.193996 gap=   6.894 eV

N_FOD(alpha) =  0.000000
 N_FOD(beta) =  0.000000
       N_FOD =  0.000000

               *****************************************************
               *                     SUCCESS                       *
               *           SCF CONVERGED AFTER  17 CYCLES          *
               *****************************************************

Setting up the final grid:

General Integration Accuracy     IntAcc      ...  4.670
Radial Grid Type                 RadialGrid  ... Gauss-Chebyshev
Angular Grid (max. acc.)         AngularGrid ... Lebedev-302
Angular grid pruning method      GridPruning ... 3 (G Style)
Weight generation scheme         WeightScheme... Becke
Basis function cutoff            BFCut       ...    1.0000e-12
Integration weight cutoff        WCut        ...    1.0000e-14
Grids for H and He will be reduced by one unit

# of grid points (after initial pruning)     ...  55394 (   0.0 sec)
# of grid points (after weights+screening)   ...  51160 (   0.1 sec)
nearest neighbour list constructed           ...    0.0 sec
Grid point re-assignment to atoms done       ...    0.0 sec
Grid point division into batches done        ...    0.2 sec
Reduced shell lists constructed in    0.3 sec

Total number of grid points                  ...    51160
Total number of batches                      ...      806
Average number of points per batch           ...       63
Average number of grid points per atom       ...     3935
Average number of shells per batch           ...    35.02 (83.39%)
Average number of basis functions per batch  ...    62.22 (84.08%)
Average number of large shells per batch     ...    30.18 (86.17%)
Average number of large basis fcns per batch ...    53.16 (85.44%)
Maximum spatial batch extension              ...  18.16, 19.50, 19.49 au
Average spatial batch extension              ...   2.66,  2.65,  2.64 au

Final grid set up in    1.6 sec
Final integration                            ... done (  16.6 sec)
Change in XC energy                          ...     0.000317488
Integrated number of electrons               ...    32.999955569
Previous integrated no of electrons          ...    33.003346055

----------------
TOTAL SCF ENERGY
----------------

Total Energy       :         -157.50895982 Eh           -4286.03669 eV

Components:
Nuclear Repulsion  :          127.38526842 Eh            3466.32938 eV
Electronic Energy  :         -284.89422824 Eh           -7752.36607 eV
One Electron Energy:         -462.27191727 Eh          -12579.05838 eV
Two Electron Energy:          177.37768903 Eh            4826.69230 eV

Virial components:
Potential Energy   :         -313.40129632 Eh           -8528.08283 eV
Kinetic Energy     :          155.89233651 Eh            4242.04614 eV
Virial Ratio       :            2.01037013


DFT components:
N(Alpha)           :       16.999978765666 electrons
N(Beta)            :       15.999976803196 electrons
N(Total)           :       32.999955568862 electrons
E(X)               :      -18.886992369076 Eh       
E(C)               :       -1.221201391763 Eh       
E(XC)              :      -20.108193760839 Eh       
DFET-embed. en.    :        0.000000000000 Eh       

---------------
SCF CONVERGENCE
---------------

  Last Energy change         ...    1.5064e-12  Tolerance :   1.0000e-09
  Last MAX-Density change    ...    7.9352e-08  Tolerance :   1.0000e-08
  Last RMS-Density change    ...    3.4291e-09  Tolerance :   1.0000e-09
  Last DIIS Error            ...    1.9408e-08  Tolerance :   1.0000e-08

             **** THE GBW FILE WAS UPDATED (orca7.gbw) ****
             **** DENSITY FILE WAS UPDATED (orca7.scfp) ****
             **** ENERGY FILE WAS UPDATED (orca7.en.tmp) ****
             **** THE GBW FILE WAS UPDATED (orca7.gbw) ****
             **** DENSITY FILE WAS UPDATED (orca7.scfp) ****
----------------
ORBITAL ENERGIES
----------------
                 SPIN UP ORBITALS
  NO   OCC          E(Eh)            E(eV) 
   0   1.0000     -10.188143      -277.2335 
   1   1.0000     -10.184631      -277.1379 
   2   1.0000     -10.167159      -276.6625 
   3   1.0000     -10.165702      -276.6228 
   4   1.0000      -0.805638       -21.9225 
   5   1.0000      -0.672901       -18.3106 
   6   1.0000      -0.664197       -18.0737 
   7   1.0000      -0.545465       -14.8428 
   8   1.0000      -0.469087       -12.7645 
   9   1.0000      -0.435366       -11.8469 
  10   1.0000      -0.428577       -11.6622 
  11   1.0000      -0.380084       -10.3426 
  12   1.0000      -0.360582        -9.8119 
  13   1.0000      -0.349117        -9.5000 
  14   1.0000      -0.329568        -8.9680 
  15   1.0000      -0.325910        -8.8684 
  16   1.0000      -0.232557        -6.3282 
  17   0.0000       0.054419         1.4808 
  18   0.0000       0.090798         2.4707 
  19   0.0000       0.103023         2.8034 
  20   0.0000       0.112179         3.0525 
  21   0.0000       0.123370         3.3571 
  22   0.0000       0.134594         3.6625 
  23   0.0000       0.153139         4.1671 
  24   0.0000       0.169240         4.6053 
  25   0.0000       0.184141         5.0107 
  26   0.0000       0.219671         5.9776 
  27   0.0000       0.252505         6.8710 
  28   0.0000       0.270244         7.3537 
  29   0.0000       0.398070        10.8320 
  30   0.0000       0.425916        11.5898 
  31   0.0000       0.433811        11.8046 
  32   0.0000       0.450894        12.2694 
  33   0.0000       0.477589        12.9959 
  34   0.0000       0.519801        14.1445 
  35   0.0000       0.593702        16.1555 
  36   0.0000       0.620389        16.8817 
  37   0.0000       0.641999        17.4697 
  38   0.0000       0.653183        17.7740 
  39   0.0000       0.665479        18.1086 
  40   0.0000       0.672108        18.2890 
  41   0.0000       0.677876        18.4460 
  42   0.0000       0.683267        18.5926 
  43   0.0000       0.700738        19.0681 
  44   0.0000       0.709227        19.2990 
  45   0.0000       0.720768        19.6131 
  46   0.0000       0.727643        19.8002 
  47   0.0000       0.744732        20.2652 
  48   0.0000       0.753076        20.4922 
  49   0.0000       0.792870        21.5751 
  50   0.0000       0.803781        21.8720 
  51   0.0000       0.907335        24.6898 
  52   0.0000       1.011350        27.5202 
  53   0.0000       1.090124        29.6638 
  54   0.0000       1.391402        37.8620 
  55   0.0000       1.423050        38.7232 
  56   0.0000       1.734829        47.2071 
  57   0.0000       1.772482        48.2317 
  58   0.0000       1.795783        48.8657 
  59   0.0000       1.820642        49.5422 
  60   0.0000       1.901069        51.7307 
  61   0.0000       1.954088        53.1735 
  62   0.0000       1.982969        53.9593 
  63   0.0000       2.013581        54.7923 
  64   0.0000       2.070459        56.3401 
  65   0.0000       2.080750        56.6201 
  66   0.0000       2.140154        58.2365 
  67   0.0000       2.152343        58.5682 
  68   0.0000       2.197164        59.7879 
  69   0.0000       2.425227        65.9938 
  70   0.0000       2.445592        66.5479 
  71   0.0000       2.503433        68.1219 
  72   0.0000       2.684559        73.0506 
  73   0.0000       2.703313        73.5609 

                 SPIN DOWN ORBITALS
  NO   OCC          E(Eh)            E(eV) 
   0   1.0000     -10.185078      -277.1501 
   1   1.0000     -10.173105      -276.8243 
   2   1.0000     -10.166668      -276.6491 
   3   1.0000     -10.165603      -276.6201 
   4   1.0000      -0.799433       -21.7537 
   5   1.0000      -0.667743       -18.1702 
   6   1.0000      -0.648476       -17.6459 
   7   1.0000      -0.535551       -14.5731 
   8   1.0000      -0.463910       -12.6236 
   9   1.0000      -0.429985       -11.7005 
  10   1.0000      -0.424803       -11.5595 
  11   1.0000      -0.379772       -10.3341 
  12   1.0000      -0.352757        -9.5990 
  13   1.0000      -0.343966        -9.3598 
  14   1.0000      -0.325121        -8.8470 
  15   1.0000      -0.322311        -8.7705 
  16   0.0000      -0.068977        -1.8770 
  17   0.0000       0.058218         1.5842 
  18   0.0000       0.092350         2.5130 
  19   0.0000       0.106640         2.9018 
  20   0.0000       0.112776         3.0688 
  21   0.0000       0.127147         3.4599 
  22   0.0000       0.136699         3.7198 
  23   0.0000       0.156530         4.2594 
  24   0.0000       0.169592         4.6148 
  25   0.0000       0.187562         5.1038 
  26   0.0000       0.222375         6.0511 
  27   0.0000       0.256535         6.9807 
  28   0.0000       0.278954         7.5907 
  29   0.0000       0.407434        11.0869 
  30   0.0000       0.432816        11.7775 
  31   0.0000       0.436648        11.8818 
  32   0.0000       0.457329        12.4445 
  33   0.0000       0.505427        13.7534 
  34   0.0000       0.533638        14.5210 
  35   0.0000       0.614366        16.7178 
  36   0.0000       0.634261        17.2591 
  37   0.0000       0.646497        17.5921 
  38   0.0000       0.659292        17.9403 
  39   0.0000       0.667828        18.1725 
  40   0.0000       0.675749        18.3881 
  41   0.0000       0.680360        18.5135 
  42   0.0000       0.692471        18.8431 
  43   0.0000       0.703079        19.1318 
  44   0.0000       0.713774        19.4228 
  45   0.0000       0.723374        19.6840 
  46   0.0000       0.731992        19.9185 
  47   0.0000       0.748687        20.3728 
  48   0.0000       0.757873        20.6228 
  49   0.0000       0.797359        21.6973 
  50   0.0000       0.807088        21.9620 
  51   0.0000       0.918252        24.9869 
  52   0.0000       1.013517        27.5792 
  53   0.0000       1.094146        29.7732 
  54   0.0000       1.401945        38.1489 
  55   0.0000       1.429440        38.8970 
  56   0.0000       1.754419        47.7402 
  57   0.0000       1.782592        48.5068 
  58   0.0000       1.801473        49.0206 
  59   0.0000       1.872915        50.9646 
  60   0.0000       1.903780        51.8045 
  61   0.0000       1.968104        53.5548 
  62   0.0000       1.997370        54.3512 
  63   0.0000       2.035554        55.3902 
  64   0.0000       2.085814        56.7579 
  65   0.0000       2.094516        56.9947 
  66   0.0000       2.148215        58.4559 
  67   0.0000       2.163273        58.8657 
  68   0.0000       2.202200        59.9249 
  69   0.0000       2.432038        66.1791 
  70   0.0000       2.452419        66.7337 
  71   0.0000       2.513414        68.3935 
  72   0.0000       2.691477        73.2388 
  73   0.0000       2.707943        73.6869 

                    ********************************
                    * MULLIKEN POPULATION ANALYSIS *
                    ********************************

------------------------------------------
FOD BASED MULLIKEN REDUCED ORBITAL CHARGES
------------------------------------------
  0 C s       :    -0.000000  s :    -0.000000
      pz      :     0.000000  p :     0.000000
      px      :     0.000000
      py      :     0.000000
      dz2     :     0.000000  d :     0.000000
      dxz     :     0.000000
      dyz     :     0.000000
      dx2y2   :     0.000000
      dxy     :     0.000000
  1 C s       :     0.000000  s :     0.000000
      pz      :     0.000000  p :     0.000000
      px      :     0.000000
      py      :     0.000000
      dz2     :    -0.000000  d :     0.000000
      dxz     :     0.000000
      dyz     :     0.000000
      dx2y2   :     0.000000
      dxy     :     0.000000
  2 C s       :    -0.000000  s :    -0.000000
      pz      :     0.000000  p :     0.000000
      px      :     0.000000
      py      :     0.000000
      dz2     :     0.000000  d :     0.000000
      dxz     :     0.000000
      dyz     :     0.000000
      dx2y2   :     0.000000
      dxy     :     0.000000
  3 C s       :    -0.000000  s :    -0.000000
      pz      :     0.000000  p :     0.000000
      px      :     0.000000
      py      :     0.000000
      dz2     :     0.000000  d :     0.000000
      dxz     :     0.000000
      dyz     :     0.000000
      dx2y2   :     0.000000
      dxy     :     0.000000
  4 H s       :     0.000000  s :     0.000000
  5 H s       :     0.000000  s :     0.000000
  6 H s       :     0.000000  s :     0.000000
  7 H s       :     0.000000  s :     0.000000
  8 H s       :     0.000000  s :     0.000000
  9 H s       :     0.000000  s :     0.000000
 10 H s       :     0.000000  s :     0.000000
 11 H s       :     0.000000  s :     0.000000
 12 H s       :     0.000000  s :     0.000000


                     *******************************
                     * LOEWDIN POPULATION ANALYSIS *
                     *******************************

-------------------------------------------
LOEWDIN ATOMIC CHARGES AND SPIN POPULATIONS
-------------------------------------------
   0 C :   -0.174857   -0.000272
   1 C :   -0.203579    0.954246
   2 C :   -0.303836    0.015270
   3 C :   -0.305693    0.003616
   4 H :    0.120963    0.052436
   5 H :    0.105341   -0.011711
   6 H :    0.104864   -0.013250
   7 H :    0.106330   -0.000445
   8 H :    0.109005    0.000256
   9 H :    0.109801    0.001041
  10 H :    0.111638   -0.000661
  11 H :    0.106221   -0.000639
  12 H :    0.113802    0.000111

----------------------------------------------------
LOEWDIN REDUCED ORBITAL CHARGES AND SPIN POPULATIONS
----------------------------------------------------
CHARGE
  0 C s       :     2.869697  s :     2.869697
      pz      :     1.058244  p :     3.189446
      px      :     1.068014
      py      :     1.063188
      dz2     :     0.023112  d :     0.115714
      dxz     :     0.021704
      dyz     :     0.019021
      dx2y2   :     0.029991
      dxy     :     0.021887
  1 C s       :     3.047046  s :     3.047046
      pz      :     0.965942  p :     3.093742
      px      :     1.066331
      py      :     1.061469
      dz2     :     0.008052  d :     0.062791
      dxz     :     0.014228
      dyz     :     0.004950
      dx2y2   :     0.025710
      dxy     :     0.009851
  2 C s       :     2.954682  s :     2.954682
      pz      :     1.099097  p :     3.272356
      px      :     1.067131
      py      :     1.106128
      dz2     :     0.010427  d :     0.076798
      dxz     :     0.019013
      dyz     :     0.016866
      dx2y2   :     0.017015
      dxy     :     0.013477
  3 C s       :     2.957575  s :     2.957575
      pz      :     1.106703  p :     3.273992
      px      :     1.104642
      py      :     1.062647
      dz2     :     0.016081  d :     0.074126
      dxz     :     0.006516
      dyz     :     0.019170
      dx2y2   :     0.021744
      dxy     :     0.010615
  4 H s       :     0.879037  s :     0.879037
  5 H s       :     0.894659  s :     0.894659
  6 H s       :     0.895136  s :     0.895136
  7 H s       :     0.893670  s :     0.893670
  8 H s       :     0.890995  s :     0.890995
  9 H s       :     0.890199  s :     0.890199
 10 H s       :     0.888362  s :     0.888362
 11 H s       :     0.893779  s :     0.893779
 12 H s       :     0.886198  s :     0.886198

SPIN
  0 C s       :    -0.001742  s :    -0.001742
      pz      :     0.000154  p :    -0.012547
      px      :    -0.006262
      py      :    -0.006439
      dz2     :     0.008355  d :     0.014017
      dxz     :     0.003622
      dyz     :     0.000282
      dx2y2   :     0.000280
      dxy     :     0.001478
  1 C s       :     0.098384  s :     0.098384
      pz      :     0.760664  p :     0.859715
      px      :     0.021792
      py      :     0.077260
      dz2     :    -0.000778  d :    -0.003853
      dxz     :    -0.001357
      dyz     :    -0.000637
      dx2y2   :    -0.000961
      dxy     :    -0.000119
  2 C s       :     0.005883  s :     0.005883
      pz      :     0.001306  p :     0.009545
      px      :     0.007319
      py      :     0.000920
      dz2     :     0.000252  d :    -0.000158
      dxz     :    -0.000147
      dyz     :    -0.000060
      dx2y2   :    -0.000117
      dxy     :    -0.000086
  3 C s       :     0.001382  s :     0.001382
      pz      :     0.000700  p :     0.002413
      px      :     0.000667
      py      :     0.001045
      dz2     :     0.000073  d :    -0.000179
      dxz     :     0.000132
      dyz     :    -0.000182
      dx2y2   :    -0.000093
      dxy     :    -0.000109
  4 H s       :     0.052436  s :     0.052436
  5 H s       :    -0.011711  s :    -0.011711
  6 H s       :    -0.013250  s :    -0.013250
  7 H s       :    -0.000445  s :    -0.000445
  8 H s       :     0.000256  s :     0.000256
  9 H s       :     0.001041  s :     0.001041
 10 H s       :    -0.000661  s :    -0.000661
 11 H s       :    -0.000639  s :    -0.000639
 12 H s       :     0.000111  s :     0.000111


                      *****************************
                      * MAYER POPULATION ANALYSIS *
                      *****************************

  NA   - Mulliken gross atomic population
  ZA   - Total nuclear charge
  QA   - Mulliken gross atomic charge
  VA   - Mayer's total valence
  BVA  - Mayer's bonded valence
  FA   - Mayer's free valence

  ATOM       NA         ZA         QA         VA         BVA        FA
  0 C      6.1293     6.0000    -0.1293     4.2045     4.2019     0.0026
  1 C      6.1866     6.0000    -0.1866     3.8856     3.0237     0.8619
  2 C      6.2358     6.0000    -0.2358     3.9563     3.9561     0.0002
  3 C      6.2425     6.0000    -0.2425     3.9381     3.9381     0.0000
  4 H      0.9199     1.0000     0.0801     0.9400     0.9366     0.0034
  5 H      0.9087     1.0000     0.0913     0.9500     0.9489     0.0011
  6 H      0.9114     1.0000     0.0886     0.9522     0.9510     0.0013
  7 H      0.9127     1.0000     0.0873     0.9568     0.9568     0.0000
  8 H      0.9155     1.0000     0.0845     0.9524     0.9524     0.0000
  9 H      0.9064     1.0000     0.0936     0.9650     0.9649     0.0000
 10 H      0.9094     1.0000     0.0906     0.9557     0.9557     0.0000
 11 H      0.9141     1.0000     0.0859     0.9642     0.9642     0.0000
 12 H      0.9076     1.0000     0.0924     0.9678     0.9678     0.0000

  Mayer bond orders larger than 0.100000
B(  0-C ,  1-C ) :   1.1047 B(  0-C ,  2-C ) :   1.1019 B(  0-C ,  3-C ) :   1.0791 
B(  0-C ,  4-H ) :   0.8927 B(  1-C ,  5-H ) :   0.9445 B(  1-C ,  6-H ) :   0.9429 
B(  2-C ,  7-H ) :   0.9561 B(  2-C ,  8-H ) :   0.9575 B(  2-C ,  9-H ) :   0.9543 
B(  3-C , 10-H ) :   0.9575 B(  3-C , 11-H ) :   0.9596 B(  3-C , 12-H ) :   0.9577 


-------
TIMINGS
-------

Total SCF time: 0 days 0 hours 11 min 38 sec 

Total time                  ....     698.268 sec
Sum of individual times     ....     555.461 sec  ( 79.5%)

Fock matrix formation       ....     445.239 sec  ( 63.8%)
  XC integration            ....     222.854 sec  ( 50.1% of F)
    Basis function eval.    ....       0.794 sec  (  0.4% of XC)
    Density eval.           ....       0.561 sec  (  0.3% of XC)
    XC-Functional eval.     ....       0.342 sec  (  0.2% of XC)
    XC-Potential eval.      ....       0.858 sec  (  0.4% of XC)
Diagonalization             ....      27.154 sec  (  3.9%)
Density matrix formation    ....      45.029 sec  (  6.4%)
Population analysis         ....      18.251 sec  (  2.6%)
Initial guess               ....       0.995 sec  (  0.1%)
Orbital Transformation      ....       0.000 sec  (  0.0%)
Orbital Orthonormalization  ....       0.000 sec  (  0.0%)
DIIS solution               ....      14.370 sec  (  2.1%)
Grid generation             ....       4.424 sec  (  0.6%)


-------------------------------------------------------------------------------
                          DFT DISPERSION CORRECTION                            
                                                                               
                              DFTD3 V3.1  Rev 1                                
                          USING Becke-Johnson damping                          
-------------------------------------------------------------------------------
The B3LYP functional is recognized
Active option DFTDOPT                   ...         4   

molecular C6(AA) [au] = 1132.129393 


            DFT-D V3
 parameters
 s6 scaling factor         :     1.0000 
 a1 scaling factor         :     0.3981 
 s8 scaling factor         :     1.9889 
 a2 scaling factor         :     4.4211 
 ad hoc parameters k1-k3   :    16.0000     1.3333    -4.0000 

 Edisp/kcal,au: -9.161390415559  -0.014599603380 
 E6   /kcal   :  -4.541028056 
 E8   /kcal   :  -4.620362359 
 % E8         :  50.432981783 

-------------------------   ----------------
Dispersion correction           -0.014599603
-------------------------   ----------------


-------------------------   --------------------
FINAL SINGLE POINT ENERGY      -157.523559422514
-------------------------   --------------------

------------------------------------------------------------------------------
                         ORCA SCF GRADIENT CALCULATION
------------------------------------------------------------------------------

Gradient of the Kohn-Sham DFT energy:
Kohn-Sham wavefunction type      ... UKS
Hartree-Fock exchange scaling    ...    0.200
Number of operators              ...    2
Number of atoms                  ...   13
Basis set dimensions             ...   74
Integral neglect threshold       ... 1.0e-12
Integral primitive cutoff        ... 1.0e-14

Nuclear repulsion gradient       ... done
One Electron Gradient            ... done
Pre-screening matrix             ... done
Starting the two electron gradient:
Two electron gradient done
Exchange-correlation gradient    ... done
Dispersion correction            ... done

------------------
CARTESIAN GRADIENT
------------------

   1   C   :    0.003665570    0.005026778   -0.015796992
   2   C   :    0.014394610   -0.007524763    0.041194550
   3   C   :   -0.033666888   -0.001458312    0.006332862
   4   C   :    0.018342275    0.014330578    0.005397518
   5   H   :    0.005876869   -0.000305472   -0.003515942
   6   H   :   -0.003621367   -0.004931991   -0.014509798
   7   H   :    0.001355558   -0.003245855   -0.017966033
   8   H   :    0.000500131   -0.001692217   -0.000936943
   9   H   :   -0.001066813   -0.002115614   -0.009937171
  10   H   :    0.003308231   -0.006870389    0.003422609
  11   H   :   -0.005674995    0.004124281   -0.005739650
  12   H   :   -0.004607392   -0.000295975    0.002615958
  13   H   :    0.001194210    0.004958951    0.009439033

Difference to translation invariance:
           :    0.0000000000   -0.0000000000    0.0000000000

Norm of the cartesian gradient     ...    0.0709186719
RMS gradient                       ...    0.0113560760
MAX gradient                       ...    0.0411945505

-------
TIMINGS
-------

Total SCF gradient time            ...        4.932 sec

One electron gradient       ....       0.026 sec  (  0.5%)
Prescreening matrices       ....       0.024 sec  (  0.5%)
Two electron gradient       ....       1.306 sec  ( 26.5%)
XC gradient                 ....       2.373 sec  ( 48.1%)
------------------------------------------------------------------------------
                         ORCA GEOMETRY RELAXATION STEP
------------------------------------------------------------------------------

Reading the OPT-File                    .... done
Getting information on internals        .... done
Copying old internal coords+grads       .... done
Making the new internal coordinates     .... (new redundants).... done
Validating the new internal coordinates .... (new redundants).... done
Calculating the B-matrix                .... done
Calculating the G,G- and P matrices     .... done
Transforming gradient to internals      .... done
Projecting the internal gradient        .... done
Number of atoms                         ....  13
Number of internal coordinates          ....  57
Current Energy                          ....  -157.523559423 Eh
Current gradient norm                   ....     0.070918672 Eh/bohr
Maximum allowed component of the step   ....  0.300
Current trust radius                    ....  0.300
Evaluating the initial hessian          ....  (Almloef) done
Projecting the Hessian                  .... done
Forming the augmented Hessian           .... done
Diagonalizing the augmented Hessian     .... done
Last element of RFO vector              ....  0.927919130
Lowest eigenvalues of augmented Hessian:
 -0.020249319  0.012531334  0.013217199  0.014007727  0.075595275
Length of the computed step             ....  0.401739271
Warning: the length of the step is outside the trust region - taking restricted step instead
The input lambda is                     ....    -0.020249
   iter:   1  x=   -0.037280  g=    4.192093 f(x)=     0.071394
   iter:   2  x=   -0.048515  g=    2.001082 f(x)=     0.022482
   iter:   3  x=   -0.051053  g=    1.415346 f(x)=     0.003592
   iter:   4  x=   -0.051146  g=    1.320342 f(x)=     0.000123
   iter:   5  x=   -0.051146  g=    1.317052 f(x)=     0.000000
   iter:   6  x=   -0.051146  g=    1.317048 f(x)=     0.000000
   iter:   7  x=   -0.051146  g=    1.317048 f(x)=    -0.000000
The output lambda is                    ....    -0.051146 (7 iterations)
The final length of the internal step   ....  0.300000000
Converting the step to cartesian space:
 Initial RMS(Int)=    0.0397359707
Transforming coordinates:
 Iter   0:  RMS(Cart)=    0.0813906482 RMS(Int)=    0.0399519981
 Iter   1:  RMS(Cart)=    0.0038611333 RMS(Int)=    0.0027510900
 Iter   2:  RMS(Cart)=    0.0002873513 RMS(Int)=    0.0001750961
 Iter   3:  RMS(Cart)=    0.0000400510 RMS(Int)=    0.0000327488
 Iter   4:  RMS(Cart)=    0.0000038009 RMS(Int)=    0.0000026303
 Iter   5:  RMS(Cart)=    0.0000005412 RMS(Int)=    0.0000004137
 Iter   6:  RMS(Cart)=    0.0000000530 RMS(Int)=    0.0000000426
done
Storing new coordinates                 .... done

                                .--------------------.
          ----------------------|Geometry convergence|-------------------------
          Item                value                   Tolerance       Converged
          ---------------------------------------------------------------------
          RMS gradient        0.0087195749            0.0001000000      NO
          MAX gradient        0.0285694390            0.0003000000      NO
          RMS step            0.0397359707            0.0020000000      NO
          MAX step            0.1326495576            0.0040000000      NO
          ........................................................
          Max(Bonds)      0.0325      Max(Angles)    5.53
          Max(Dihed)        7.60      Max(Improp)    0.00
          ---------------------------------------------------------------------

The optimization has not yet converged - more geometry cycles are needed


    ---------------------------------------------------------------------------
                         Redundant Internal Coordinates
                            (Angstroem and degrees)

        Definition                    Value    dE/dq     Step     New-Value
    ----------------------------------------------------------------------------
     1. B(C   1,C   0)                1.4979 -0.012027  0.0135    1.5114   
     2. B(C   2,C   0)                1.5018 -0.028569  0.0325    1.5343   
     3. B(C   3,C   0)                1.5164 -0.025317  0.0302    1.5465   
     4. B(H   4,C   0)                1.1186  0.003693 -0.0052    1.1134   
     5. B(H   5,C   1)                1.0979 -0.004387  0.0058    1.1037   
     6. B(H   6,C   1)                1.1152  0.006357 -0.0089    1.1063   
     7. B(H   7,C   2)                1.1037 -0.001595  0.0021    1.1058   
     8. B(H   8,C   2)                1.1202  0.006873 -0.0097    1.1104   
     9. B(H   9,C   2)                1.1142  0.007002 -0.0097    1.1044   
    10. B(H  10,C   3)                1.1066  0.001381 -0.0019    1.1047   
    11. B(H  11,C   3)                1.1140  0.004668 -0.0065    1.1076   
    12. B(H  12,C   3)                1.1119  0.005860 -0.0081    1.1038   
    13. A(C   1,C   0,H   4)          109.44  0.000619   -1.40    108.04   
    14. A(C   2,C   0,H   4)          107.06  0.001374   -0.88    106.18   
    15. A(C   1,C   0,C   2)          114.24  0.008666   -1.06    113.18   
    16. A(C   1,C   0,C   3)          109.24 -0.004758    1.77    111.02   
    17. A(C   2,C   0,C   3)          105.73 -0.012808    3.22    108.95   
    18. A(C   3,C   0,H   4)          111.08  0.007024   -1.64    109.44   
    19. A(H   5,C   1,H   6)          109.37  0.005583    1.97    111.33   
    20. A(C   0,C   1,H   6)          107.04 -0.026633    5.53    112.57   
    21. A(C   0,C   1,H   5)          114.48 -0.009631    2.75    117.23   
    22. A(H   7,C   2,H   9)          109.07 -0.000614   -0.51    108.56   
    23. A(C   0,C   2,H   9)          113.54  0.004412   -0.86    112.68   
    24. A(H   7,C   2,H   8)          106.84  0.003250   -0.13    106.70   
    25. A(C   0,C   2,H   8)          105.93 -0.012624    2.31    108.23   
    26. A(H   8,C   2,H   9)          106.94  0.002615   -0.07    106.87   
    27. A(C   0,C   2,H   7)          114.03  0.002611   -0.56    113.46   
    28. A(H  11,C   3,H  12)          105.78  0.002098    0.12    105.91   
    29. A(H  10,C   3,H  12)          113.10  0.009447   -2.07    111.03   
    30. A(C   0,C   3,H  12)          107.98 -0.009929    1.50    109.48   
    31. A(H  10,C   3,H  11)          105.92 -0.000077    0.15    106.08   
    32. A(C   0,C   3,H  11)          111.64  0.000100    0.25    111.88   
    33. A(C   0,C   3,H  10)          112.27 -0.001067    0.01    112.28   
    34. D(H   6,C   1,C   0,C   3)    -46.79 -0.014708    5.28    -41.52   
    35. D(H   6,C   1,C   0,H   4)     75.03 -0.008662    3.49     78.51   
    36. D(H   6,C   1,C   0,C   2)   -164.96 -0.000663    0.63   -164.33   
    37. D(H   5,C   1,C   0,H   4)    -46.35  0.009564   -4.74    -51.10   
    38. D(H   5,C   1,C   0,C   2)     73.66  0.017563   -7.60     66.06   
    39. D(H   5,C   1,C   0,C   3)   -168.17  0.003519   -2.96   -171.13   
    40. D(H   7,C   2,C   0,C   1)    -51.69 -0.007242    2.36    -49.32   
    41. D(H   9,C   2,C   0,C   1)     74.07 -0.002048    0.43     74.50   
    42. D(H   8,C   2,C   0,H   4)    -47.54  0.002774   -1.73    -49.28   
    43. D(H   8,C   2,C   0,C   1)   -168.88 -0.004481    1.34   -167.54   
    44. D(H   7,C   2,C   0,H   4)     69.65  0.000014   -0.71     68.94   
    45. D(H   7,C   2,C   0,C   3)   -171.84  0.002355   -1.42   -173.26   
    46. D(H   9,C   2,C   0,C   3)    -46.09  0.007548   -3.36    -49.44   
    47. D(H   9,C   2,C   0,H   4)   -164.59  0.005207   -2.65   -167.24   
    48. D(H   8,C   2,C   0,C   3)     70.96  0.005115   -2.44     68.52   
    49. D(H  12,C   3,C   0,H   4)    151.68 -0.000281    0.84    152.53   
    50. D(H  12,C   3,C   0,C   1)    -87.49  0.001834   -0.78    -88.28   
    51. D(H  11,C   3,C   0,H   4)    -92.44 -0.003627    2.02    -90.42   
    52. D(H  11,C   3,C   0,C   2)    151.76 -0.001529    2.07    153.83   
    53. D(H  11,C   3,C   0,C   1)     28.38 -0.001512    0.40     28.78   
    54. D(H  10,C   3,C   0,H   4)     26.33 -0.004380    2.39     28.72   
    55. D(H  12,C   3,C   0,C   2)     35.88  0.001817    0.89     36.78   
    56. D(H  10,C   3,C   0,C   2)    -89.47 -0.002282    2.44    -87.03   
    57. D(H  10,C   3,C   0,C   1)    147.15 -0.002265    0.77    147.92   
    ----------------------------------------------------------------------------

Time needed for optimization step       :     8.49 sec

         *************************************************************
         *                GEOMETRY OPTIMIZATION CYCLE   2            *
         *************************************************************
---------------------------------
CARTESIAN COORDINATES (ANGSTROEM)
---------------------------------
  C      0.022942    0.185519   -0.376146
  C     -1.020811    0.995276    0.358189
  C      1.410606    0.262700    0.273916
  C     -0.399974   -1.298285   -0.482152
  H      0.134874    0.613327   -1.397918
  H     -0.892977    2.091544    0.362042
  H     -2.050647    0.719764    0.062416
  H      1.736420    1.296177    0.494358
  H      2.151317   -0.160699   -0.436807
  H      1.479778   -0.332699    1.201545
  H     -0.033117   -1.773077   -1.409680
  H     -1.501446   -1.413672   -0.493501
  H     -0.047878   -1.845827    0.409230

----------------------------
CARTESIAN COORDINATES (A.U.)
----------------------------
  NO LB      ZA    FRAG     MASS         X           Y           Z
   0 C     6.0000    0    12.011    0.043354    0.350581   -0.710813
   1 C     6.0000    0    12.011   -1.929053    1.880799    0.676880
   2 C     6.0000    0    12.011    2.665660    0.496432    0.517627
   3 C     6.0000    0    12.011   -0.755841   -2.453403   -0.911135
   4 H     1.0000    0     1.008    0.254875    1.159021   -2.641682
   5 H     1.0000    0     1.008   -1.687481    3.952445    0.684159
   6 H     1.0000    0     1.008   -3.875162    1.360156    0.117949
   7 H     1.0000    0     1.008    3.281359    2.449419    0.934201
   8 H     1.0000    0     1.008    4.065400   -0.303677   -0.825446
   9 H     1.0000    0     1.008    2.796376   -0.628710    2.270591
  10 H     1.0000    0     1.008   -0.062582   -3.350630   -2.663909
  11 H     1.0000    0     1.008   -2.837322   -2.671453   -0.932582
  12 H     1.0000    0     1.008   -0.090476   -3.488108    0.773332

--------------------------------
INTERNAL COORDINATES (ANGSTROEM)
--------------------------------
 C      0   0   0     0.000000000000     0.00000000     0.00000000
 C      1   0   0     1.511414620006     0.00000000     0.00000000
 C      1   2   0     1.534324145184   113.06475002     0.00000000
 C      1   2   3     1.546534681104   111.00723705   122.78331408
 H      1   2   3     1.113357854731   108.02634923   242.80791462
 H      2   1   3     1.103702794138   116.99173813    65.95829658
 H      2   1   3     1.106323529135   112.30393844   195.81665324
 H      3   1   2     1.105813136145   113.44986368   310.66268246
 H      3   1   2     1.110426665749   108.23621407   192.44860587
 H      3   1   2     1.104436602437   112.66732828    74.49322755
 H      4   1   2     1.104680947106   112.27824954   147.88267824
 H      4   1   2     1.107557913533   111.87702154    28.74266644
 H      4   1   2     1.103782544104   109.47246419   271.68048610

---------------------------
INTERNAL COORDINATES (A.U.)
---------------------------
 C      0   0   0     0.000000000000     0.00000000     0.00000000
 C      1   0   0     2.856159706616     0.00000000     0.00000000
 C      1   2   0     2.899452435060   113.06475002     0.00000000
 C      1   2   3     2.922527003897   111.00723705   122.78331408
 H      1   2   3     2.103941434492   108.02634923   242.80791462
 H      2   1   3     2.085696014165   116.99173813    65.95829658
 H      2   1   3     2.090648485578   112.30393844   195.81665324
 H      3   1   2     2.089683982607   113.44986368   310.66268246
 H      3   1   2     2.098402290069   108.23621407   192.44860587
 H      3   1   2     2.087082710884   112.66732828    74.49322755
 H      4   1   2     2.087544455390   112.27824954   147.88267824
 H      4   1   2     2.092981134034   111.87702154    28.74266644
 H      4   1   2     2.085846719759   109.47246419   271.68048610


Diagonalization of the overlap matrix:
Smallest eigenvalue                        ... 2.316e-03
Time for diagonalization                   ...    0.001 sec
Threshold for overlap eigenvalues          ... 1.000e-08
Number of eigenvalues below threshold      ... 0
Time for construction of square roots      ...    5.187 sec
Total time needed                          ...    5.188 sec

-------------------
DFT GRID GENERATION
-------------------

General Integration Accuracy     IntAcc      ...  4.340
Radial Grid Type                 RadialGrid  ... Gauss-Chebyshev
Angular Grid (max. acc.)         AngularGrid ... Lebedev-110
Angular grid pruning method      GridPruning ... 3 (G Style)
Weight generation scheme         WeightScheme... Becke
Basis function cutoff            BFCut       ...    1.0000e-12
Integration weight cutoff        WCut        ...    1.0000e-14
Grids for H and He will be reduced by one unit

# of grid points (after initial pruning)     ...  13770 (   0.0 sec)
# of grid points (after weights+screening)   ...  12893 (   0.0 sec)
nearest neighbour list constructed           ...    0.0 sec
Grid point re-assignment to atoms done       ...    0.0 sec
Grid point division into batches done        ...    0.0 sec
Reduced shell lists constructed in    0.1 sec

Total number of grid points                  ...    12893
Total number of batches                      ...      209
Average number of points per batch           ...       61
Average number of grid points per atom       ...      992
Average number of shells per batch           ...    37.22 (88.63%)
Average number of basis functions per batch  ...    66.26 (89.54%)
Average number of large shells per batch     ...    32.55 (87.45%)
Average number of large basis fcns per batch ...    57.51 (86.80%)
Maximum spatial batch extension              ...  21.77, 20.81, 24.15 au
Average spatial batch extension              ...   4.22,  3.96,  4.10 au

Time for grid setup =    1.792 sec

--------------
SCF ITERATIONS
--------------
ITER       Energy         Delta-E        Max-DP      RMS-DP      [F,P]     Damp
               ***  Starting incremental Fock matrix formation  ***
  0   -157.5175426252   0.000000000000 0.00406189  0.00017346  0.0159490 0.7000
  1   -157.5184046197  -0.000861994527 0.00383814  0.00016476  0.0126292 0.7000
                               ***Turning on DIIS***
  2   -157.5190750251  -0.000670405382 0.01008275  0.00044159  0.0094868 0.0000
  3   -157.5207731209  -0.001698095816 0.00288423  0.00008299  0.0015774 0.0000
  4   -157.5208042220  -0.000031101079 0.00257205  0.00006731  0.0008275 0.0000
  5   -157.5208116310  -0.000007409068 0.00041282  0.00001511  0.0004561 0.0000
  6   -157.5208126536  -0.000001022536 0.00026600  0.00000719  0.0001347 0.0000
  7   -157.5208128058  -0.000000152181 0.00003297  0.00000146  0.0000229 0.0000
  8   -157.5208128115  -0.000000005756 0.00001135  0.00000063  0.0000192 0.0000
  9   -157.5208128138  -0.000000002262 0.00000335  0.00000017  0.0000039 0.0000
 10   -157.5208128139  -0.000000000136 0.00000129  0.00000005  0.0000008 0.0000
 11   -157.5208128139  -0.000000000014 0.00000062  0.00000002  0.0000005 0.0000
 12   -157.5208128139  -0.000000000000 0.00000024  0.00000001  0.0000002 0.0000
                 **** Energy Check signals convergence ****

 Fermi smearing  (ALPHA): E(HOMO(Eh)) = -0.329617 MUE = -0.082728 gap=   7.567 eV
 Fermi smearing   (BETA): E(HOMO(Eh)) = -0.326480 MUE = -0.191327 gap=   7.256 eV

N_FOD(alpha) =  0.000000
 N_FOD(beta) =  0.000000
       N_FOD =  0.000000

               *****************************************************
               *                     SUCCESS                       *
               *           SCF CONVERGED AFTER  13 CYCLES          *
               *****************************************************

Setting up the final grid:

General Integration Accuracy     IntAcc      ...  4.670
Radial Grid Type                 RadialGrid  ... Gauss-Chebyshev
Angular Grid (max. acc.)         AngularGrid ... Lebedev-302
Angular grid pruning method      GridPruning ... 3 (G Style)
Weight generation scheme         WeightScheme... Becke
Basis function cutoff            BFCut       ...    1.0000e-12
Integration weight cutoff        WCut        ...    1.0000e-14
Grids for H and He will be reduced by one unit

# of grid points (after initial pruning)     ...  55394 (   0.0 sec)
# of grid points (after weights+screening)   ...  51258 (   0.1 sec)
nearest neighbour list constructed           ...    0.0 sec
Grid point re-assignment to atoms done       ...    0.0 sec
Grid point division into batches done        ...    0.1 sec
Reduced shell lists constructed in    0.3 sec

Total number of grid points                  ...    51258
Total number of batches                      ...      807
Average number of points per batch           ...       63
Average number of grid points per atom       ...     3943
Average number of shells per batch           ...    34.85 (82.97%)
Average number of basis functions per batch  ...    61.86 (83.59%)
Average number of large shells per batch     ...    29.88 (85.74%)
Average number of large basis fcns per batch ...    52.46 (84.81%)
Maximum spatial batch extension              ...  17.99, 21.13, 20.21 au
Average spatial batch extension              ...   2.69,  2.64,  2.61 au

Final grid set up in    2.8 sec
Final integration                            ... done (  18.4 sec)
Change in XC energy                          ...     0.000172671
Integrated number of electrons               ...    32.999983169
Previous integrated no of electrons          ...    33.003616734
Total Energy       :         -157.52064014 Eh           -4286.35453 eV
  Last Energy change         ...    1.1369e-13  Tolerance :   1.0000e-09
  Last MAX-Density change    ...    1.3976e-07  Tolerance :   1.0000e-08
             **** THE GBW FILE WAS UPDATED (orca7.gbw) ****
             **** DENSITY FILE WAS UPDATED (orca7.scfp) ****
             **** ENERGY FILE WAS UPDATED (orca7.en.tmp) ****
             **** THE GBW FILE WAS UPDATED (orca7.gbw) ****
             **** DENSITY FILE WAS UPDATED (orca7.scfp) ****
Total SCF time: 0 days 0 hours 11 min 50 sec 


-------------------------------------------------------------------------------
                          DFT DISPERSION CORRECTION                            
                                                                               
                              DFTD3 V3.1  Rev 1                                
                          USING Becke-Johnson damping                          
-------------------------------------------------------------------------------
-------------------------   ----------------
Dispersion correction           -0.014336961
-------------------------   ----------------


-------------------------   --------------------
FINAL SINGLE POINT ENERGY      -157.534977104451
-------------------------   --------------------

------------------------------------------------------------------------------
                         ORCA SCF GRADIENT CALCULATION
------------------------------------------------------------------------------

Gradient of the Kohn-Sham DFT energy:
Kohn-Sham wavefunction type      ... UKS
Hartree-Fock exchange scaling    ...    0.200
Number of operators              ...    2
Number of atoms                  ...   13
Basis set dimensions             ...   74
Integral neglect threshold       ... 1.0e-12
Integral primitive cutoff        ... 1.0e-14

Nuclear repulsion gradient       ... done
One Electron Gradient            ... done
Pre-screening matrix             ... done
Starting the two electron gradient:
Two electron gradient done
Exchange-correlation gradient    ... done
Dispersion correction            ... done

------------------
CARTESIAN GRADIENT
------------------

   1   C   :    0.001610175    0.005101298   -0.015757795
   2   C   :    0.005163243   -0.003677646    0.028212409
   3   C   :   -0.011518753   -0.000473849    0.008299114
   4   C   :    0.007593884   -0.002979885    0.002892647
   5   H   :    0.004118451   -0.000597669   -0.000139068
   6   H   :   -0.004752933    0.001381944   -0.009307684
   7   H   :    0.000418932    0.000503376   -0.010197999
   8   H   :    0.002404546   -0.000380953   -0.000014439
   9   H   :   -0.000698100   -0.000278914   -0.003477951
  10   H   :    0.003136482   -0.001915228   -0.001178430
  11   H   :   -0.004921657    0.001821685   -0.003394309
  12   H   :   -0.000832124   -0.001944733    0.001688414
  13   H   :   -0.001722148    0.003440574    0.002375089

Difference to translation invariance:
           :    0.0000000000    0.0000000000   -0.0000000000

Norm of the cartesian gradient     ...    0.0415085309
RMS gradient                       ...    0.0066466844
MAX gradient                       ...    0.0282124090

-------
TIMINGS
-------

Total SCF gradient time            ...        4.031 sec

One electron gradient       ....       0.026 sec  (  0.6%)
Prescreening matrices       ....       0.024 sec  (  0.6%)
Two electron gradient       ....       1.312 sec  ( 32.6%)
XC gradient                 ....       2.340 sec  ( 58.1%)
------------------------------------------------------------------------------
                         ORCA GEOMETRY RELAXATION STEP
------------------------------------------------------------------------------

Reading the OPT-File                    .... done
Getting information on internals        .... done
Copying old internal coords+grads       .... done
Making the new internal coordinates     .... (new redundants).... done
Validating the new internal coordinates .... (new redundants).... done
Calculating the B-matrix                .... done
Calculating the G,G- and P matrices     .... done
Transforming gradient to internals      .... done
Projecting the internal gradient        .... done
Number of atoms                         ....  13
Number of internal coordinates          ....  57
Current Energy                          ....  -157.534977104 Eh
Current gradient norm                   ....     0.041508531 Eh/bohr
Maximum allowed component of the step   ....  0.300
Current trust radius                    ....  0.300
Updating the Hessian (BFGS)             .... done
Forming the augmented Hessian           .... done
Diagonalizing the augmented Hessian     .... done
Last element of RFO vector              ....  0.943796446
Lowest eigenvalues of augmented Hessian:
 -0.007412665  0.012553047  0.013211769  0.013931217  0.065280340
Length of the computed step             ....  0.350210325
Warning: the length of the step is outside the trust region - taking restricted step instead
The input lambda is                     ....    -0.007413
   iter:   1  x=   -0.012858  g=    5.995079 f(x)=     0.032647
   iter:   2  x=   -0.014794  g=    3.685962 f(x)=     0.007133
   iter:   3  x=   -0.014945  g=    3.202362 f(x)=     0.000486
   iter:   4  x=   -0.014946  g=    3.168926 f(x)=     0.000003
   iter:   5  x=   -0.014946  g=    3.168751 f(x)=     0.000000
   iter:   6  x=   -0.014946  g=    3.168751 f(x)=     0.000000
The output lambda is                    ....    -0.014946 (6 iterations)
The final length of the internal step   ....  0.300000000
Converting the step to cartesian space:
 Initial RMS(Int)=    0.0397359707
Transforming coordinates:
 Iter   0:  RMS(Cart)=    0.0616618172 RMS(Int)=    0.0399168836
 Iter   1:  RMS(Cart)=    0.0031943862 RMS(Int)=    0.0024414618
 Iter   2:  RMS(Cart)=    0.0002200373 RMS(Int)=    0.0001604597
 Iter   3:  RMS(Cart)=    0.0000293005 RMS(Int)=    0.0000229920
 Iter   4:  RMS(Cart)=    0.0000025244 RMS(Int)=    0.0000020983
 Iter   5:  RMS(Cart)=    0.0000003375 RMS(Int)=    0.0000002466
 Iter   6:  RMS(Cart)=    0.0000000309 RMS(Int)=    0.0000000283
done
Storing new coordinates                 .... done

                                .--------------------.
          ----------------------|Geometry convergence|-------------------------
          Item                value                   Tolerance       Converged
          ---------------------------------------------------------------------
          Energy change      -0.0114176819            0.0000050000      NO
          RMS gradient        0.0034268983            0.0001000000      NO
          MAX gradient        0.0123758818            0.0003000000      NO
          RMS step            0.0397359707            0.0020000000      NO
          MAX step            0.1299738274            0.0040000000      NO
          ........................................................
          Max(Bonds)      0.0102      Max(Angles)    5.03
          Max(Dihed)        7.45      Max(Improp)    0.00
          ---------------------------------------------------------------------

The optimization has not yet converged - more geometry cycles are needed


    ---------------------------------------------------------------------------
                         Redundant Internal Coordinates
                            (Angstroem and degrees)

        Definition                    Value    dE/dq     Step     New-Value
    ----------------------------------------------------------------------------
     1. B(C   1,C   0)                1.5114  0.002695 -0.0045    1.5069   
     2. B(C   2,C   0)                1.5343 -0.004652  0.0102    1.5445   
     3. B(C   3,C   0)                1.5465 -0.000601  0.0023    1.5489   
     4. B(H   4,C   0)                1.1134  0.000312 -0.0009    1.1125   
     5. B(H   5,C   1)                1.1037  0.000788 -0.0016    1.1021   
     6. B(H   6,C   1)                1.1063  0.002215 -0.0055    1.1008   
     7. B(H   7,C   2)                1.1058  0.000351 -0.0008    1.1051   
     8. B(H   8,C   2)                1.1104  0.001863 -0.0047    1.1057   
     9. B(H   9,C   2)                1.1044  0.000241 -0.0008    1.1036   
    10. B(H  10,C   3)                1.1047  0.000435 -0.0011    1.1036   
    11. B(H  11,C   3)                1.1076  0.001010 -0.0026    1.1050   
    12. B(H  12,C   3)                1.1038 -0.000338  0.0006    1.1044   
    13. A(C   1,C   0,H   4)          108.03  0.000606   -0.85    107.18   
    14. A(C   2,C   0,H   4)          106.18 -0.000397   -0.09    106.09   
    15. A(C   1,C   0,C   2)          113.06  0.003914   -0.99    112.07   
    16. A(C   1,C   0,C   3)          111.01 -0.002805    1.28    112.29   
    17. A(C   2,C   0,C   3)          108.94 -0.004002    1.73    110.68   
    18. A(C   3,C   0,H   4)          109.47  0.002934   -1.18    108.29   
    19. A(H   5,C   1,H   6)          110.86  0.001132    3.08    113.94   
    20. A(C   0,C   1,H   6)          112.30 -0.012376    5.03    117.34   
    21. A(C   0,C   1,H   5)          116.99 -0.001268    1.86    118.85   
    22. A(H   7,C   2,H   9)          108.54 -0.001765   -0.27    108.27   
    23. A(C   0,C   2,H   9)          112.67  0.003782   -1.26    111.40   
    24. A(H   7,C   2,H   8)          106.70  0.000035    0.47    107.17   
    25. A(C   0,C   2,H   8)          108.24 -0.005969    2.05    110.29   
    26. A(H   8,C   2,H   9)          106.87 -0.000049    0.47    107.35   
    27. A(C   0,C   2,H   7)          113.45  0.003553   -1.18    112.27   
    28. A(H  11,C   3,H  12)          105.89 -0.000758    0.80    106.70   
    29. A(H  10,C   3,H  12)          111.03  0.004492   -2.07    108.97   
    30. A(C   0,C   3,H  12)          109.47 -0.004214    1.03    110.51   
    31. A(H  10,C   3,H  11)          106.07 -0.002072    0.84    106.92   
    32. A(C   0,C   3,H  11)          111.88  0.002124   -0.22    111.66   
    33. A(C   0,C   3,H  10)          112.28  0.000571   -0.38    111.90   
    34. D(H   6,C   1,C   0,C   3)    -41.40 -0.007520    4.56    -36.84   
    35. D(H   6,C   1,C   0,H   4)     78.62 -0.005215    3.37     81.99   
    36. D(H   6,C   1,C   0,C   2)   -164.18 -0.003025    2.07   -162.12   
    37. D(H   5,C   1,C   0,H   4)    -51.23  0.006781   -6.14    -57.38   
    38. D(H   5,C   1,C   0,C   2)     65.96  0.008971   -7.45     58.51   
    39. D(H   5,C   1,C   0,C   3)   -171.26  0.004476   -4.95   -176.21   
    40. D(H   7,C   2,C   0,C   1)    -49.34 -0.003261    1.30    -48.04   
    41. D(H   9,C   2,C   0,C   1)     74.49  0.000211   -1.14     73.35   
    42. D(H   8,C   2,C   0,H   4)    -49.28  0.001206   -1.65    -50.93   
    43. D(H   8,C   2,C   0,C   1)   -167.55 -0.001467    0.04   -167.51   
    44. D(H   7,C   2,C   0,H   4)     68.94 -0.000589   -0.40     68.54   
    45. D(H   7,C   2,C   0,C   3)   -173.26  0.000603   -0.95   -174.21   
[...]

             **** THE GBW FILE WAS UPDATED (orca7.gbw) ****
             **** DENSITY FILE WAS UPDATED (orca7.scfp) ****
             **** ENERGY FILE WAS UPDATED (orca7.en.tmp) ****
             **** THE GBW FILE WAS UPDATED (orca7.gbw) ****
             **** DENSITY FILE WAS UPDATED (orca7.scfp) ****
----------------
ORBITAL ENERGIES
----------------
                 SPIN UP ORBITALS
  NO   OCC          E(Eh)            E(eV) 
   0   1.0000     -10.188292      -277.2375 
   1   1.0000     -10.179796      -277.0063 
   2   1.0000     -10.168232      -276.6917 
   3   1.0000     -10.167961      -276.6843 
   4   1.0000      -0.793666       -21.5967 
   5   1.0000      -0.671620       -18.2757 
   6   1.0000      -0.661388       -17.9973 
   7   1.0000      -0.548882       -14.9358 
   8   1.0000      -0.456039       -12.4095 
   9   1.0000      -0.438953       -11.9445 
  10   1.0000      -0.430532       -11.7154 
  11   1.0000      -0.382389       -10.4053 
  12   1.0000      -0.367667       -10.0047 
  13   1.0000      -0.347067        -9.4442 
  14   1.0000      -0.338196        -9.2028 
  15   1.0000      -0.332548        -9.0491 
  16   1.0000      -0.201607        -5.4860 
  17   0.0000       0.059171         1.6101 
  18   0.0000       0.105316         2.8658 
  19   0.0000       0.107610         2.9282 
  20   0.0000       0.108058         2.9404 
  21   0.0000       0.123674         3.3653 
  22   0.0000       0.129336         3.5194 
  23   0.0000       0.146228         3.9791 
  24   0.0000       0.166734         4.5371 
  25   0.0000       0.179981         4.8975 
  26   0.0000       0.210117         5.7176 
  27   0.0000       0.255629         6.9560 
  28   0.0000       0.259988         7.0746 
  29   0.0000       0.404011        10.9937 
  30   0.0000       0.423685        11.5290 
  31   0.0000       0.426689        11.6108 
  32   0.0000       0.443771        12.0756 
  33   0.0000       0.483468        13.1558 
  34   0.0000       0.497642        13.5415 
  35   0.0000       0.558102        15.1867 
  36   0.0000       0.608760        16.5652 
  37   0.0000       0.648120        17.6362 
  38   0.0000       0.654705        17.8154 
  39   0.0000       0.657662        17.8959 
  40   0.0000       0.663887        18.0653 
  41   0.0000       0.672835        18.3088 
  42   0.0000       0.693792        18.8790 
  43   0.0000       0.703887        19.1537 
  44   0.0000       0.707733        19.2584 
  45   0.0000       0.719780        19.5862 
  46   0.0000       0.731074        19.8935 
  47   0.0000       0.750546        20.4234 
  48   0.0000       0.756881        20.5958 
  49   0.0000       0.763060        20.7639 
  50   0.0000       0.876502        23.8508 
  51   0.0000       0.938763        25.5450 
  52   0.0000       1.051417        28.6105 
  53   0.0000       1.068161        29.0661 
  54   0.0000       1.396460        37.9996 
  55   0.0000       1.489142        40.5216 
  56   0.0000       1.680058        45.7167 
  57   0.0000       1.745481        47.4969 
  58   0.0000       1.766622        48.0722 
  59   0.0000       1.854191        50.4551 
  60   0.0000       1.915328        52.1187 
  61   0.0000       1.940545        52.8049 
  62   0.0000       1.955064        53.2000 
  63   0.0000       1.991023        54.1785 
  64   0.0000       2.060225        56.0616 
  65   0.0000       2.092125        56.9296 
  66   0.0000       2.145855        58.3917 
  67   0.0000       2.154170        58.6179 
  68   0.0000       2.162365        58.8409 
  69   0.0000       2.427511        66.0559 
  70   0.0000       2.443051        66.4788 
  71   0.0000       2.466680        67.1218 
  72   0.0000       2.675884        72.8145 
  73   0.0000       2.691707        73.2451 

                 SPIN DOWN ORBITALS
  NO   OCC          E(Eh)            E(eV) 
   0   1.0000     -10.189259      -277.2638 
   1   1.0000     -10.167707      -276.6774 
   2   1.0000     -10.167647      -276.6757 
   3   1.0000     -10.165288      -276.6115 
   4   1.0000      -0.786667       -21.4063 
   5   1.0000      -0.670986       -18.2585 
   6   1.0000      -0.637893       -17.3580 
   7   1.0000      -0.538775       -14.6608 
   8   1.0000      -0.450018       -12.2456 
   9   1.0000      -0.433254       -11.7894 
  10   1.0000      -0.428056       -11.6480 
  11   1.0000      -0.381853       -10.3908 
  12   1.0000      -0.365052        -9.9336 
  13   1.0000      -0.340488        -9.2652 
  14   1.0000      -0.331566        -9.0224 
  15   1.0000      -0.330000        -8.9797 
  16   0.0000      -0.045436        -1.2364 
  17   0.0000       0.061706         1.6791 
  18   0.0000       0.106983         2.9112 
  19   0.0000       0.108234         2.9452 
  20   0.0000       0.115559         3.1445 
  21   0.0000       0.127249         3.4626 
  22   0.0000       0.131487         3.5779 
  23   0.0000       0.147846         4.0231 
  24   0.0000       0.166739         4.5372 
  25   0.0000       0.181301         4.9335 
  26   0.0000       0.213124         5.7994 
  27   0.0000       0.256263         6.9733 
  28   0.0000       0.267916         7.2904 
  29   0.0000       0.405857        11.0439 
  30   0.0000       0.427648        11.6369 
  31   0.0000       0.431811        11.7502 
  32   0.0000       0.444526        12.0962 
  33   0.0000       0.502013        13.6605 
  34   0.0000       0.538272        14.6471 
  35   0.0000       0.585118        15.9219 
  36   0.0000       0.619769        16.8648 
  37   0.0000       0.650154        17.6916 
  38   0.0000       0.657059        17.8795 
  39   0.0000       0.662115        18.0171 
  40   0.0000       0.668562        18.1925 
  41   0.0000       0.682464        18.5708 
  42   0.0000       0.694706        18.9039 
  43   0.0000       0.707525        19.2527 
  44   0.0000       0.710590        19.3361 
  45   0.0000       0.719753        19.5855 
  46   0.0000       0.733834        19.9686 
  47   0.0000       0.753424        20.5017 
  48   0.0000       0.763215        20.7681 
  49   0.0000       0.769286        20.9333 
  50   0.0000       0.884305        24.0632 
  51   0.0000       0.941942        25.6316 
  52   0.0000       1.056167        28.7398 
  53   0.0000       1.071789        29.1649 
  54   0.0000       1.410494        38.3815 
  55   0.0000       1.489882        40.5418 
  56   0.0000       1.729700        47.0675 
  57   0.0000       1.748333        47.5746 
  58   0.0000       1.779547        48.4239 
  59   0.0000       1.868759        50.8515 
  60   0.0000       1.927742        52.4565 
  61   0.0000       1.953502        53.1575 
  62   0.0000       1.979883        53.8753 
  63   0.0000       2.014210        54.8094 
  64   0.0000       2.084909        56.7333 
  65   0.0000       2.101203        57.1766 
  66   0.0000       2.146735        58.4156 
  67   0.0000       2.159740        58.7695 
  68   0.0000       2.167429        58.9787 
  69   0.0000       2.437221        66.3201 
  70   0.0000       2.453888        66.7737 
  71   0.0000       2.469842        67.2078 
  72   0.0000       2.682585        72.9969 
  73   0.0000       2.692973        73.2795 

                    ********************************
                    * MULLIKEN POPULATION ANALYSIS *
                    ********************************

------------------------------------------
FOD BASED MULLIKEN REDUCED ORBITAL CHARGES
------------------------------------------
  0 C s       :    -0.000000  s :    -0.000000
      pz      :     0.000000  p :     0.000000
      px      :     0.000000
      py      :     0.000000
      dz2     :     0.000000  d :     0.000000
      dxz     :     0.000000
      dyz     :     0.000000
      dx2y2   :     0.000000
      dxy     :     0.000000
  1 C s       :    -0.000000  s :    -0.000000
      pz      :     0.000000  p :     0.000000
      px      :     0.000000
      py      :     0.000000
      dz2     :     0.000000  d :     0.000000
      dxz     :     0.000000
      dyz     :     0.000000
      dx2y2   :     0.000000
      dxy     :     0.000000
  2 C s       :    -0.000000  s :    -0.000000
      pz      :     0.000000  p :     0.000000
      px      :     0.000000
      py      :     0.000000
      dz2     :     0.000000  d :     0.000000
      dxz     :     0.000000
      dyz     :     0.000000
      dx2y2   :     0.000000
      dxy     :     0.000000
  3 C s       :    -0.000000  s :    -0.000000
      pz      :     0.000000  p :     0.000000
      px      :     0.000000
      py      :     0.000000
      dz2     :     0.000000  d :     0.000000
      dxz     :     0.000000
      dyz     :     0.000000
      dx2y2   :     0.000000
      dxy     :     0.000000
  4 H s       :     0.000000  s :     0.000000
  5 H s       :     0.000000  s :     0.000000
  6 H s       :     0.000000  s :     0.000000
  7 H s       :     0.000000  s :     0.000000
  8 H s       :     0.000000  s :     0.000000
  9 H s       :     0.000000  s :     0.000000
 10 H s       :     0.000000  s :     0.000000
 11 H s       :     0.000000  s :     0.000000
 12 H s       :     0.000000  s :     0.000000


                     *******************************
                     * LOEWDIN POPULATION ANALYSIS *
                     *******************************

-------------------------------------------
LOEWDIN ATOMIC CHARGES AND SPIN POPULATIONS
-------------------------------------------
   0 C :   -0.159760   -0.013588
   1 C :   -0.223890    0.979047
   2 C :   -0.307913    0.017891
   3 C :   -0.308087    0.011148
   4 H :    0.116195    0.053515
   5 H :    0.111308   -0.025536
   6 H :    0.112350   -0.025783
   7 H :    0.110077   -0.000422
   8 H :    0.109232    0.001387
   9 H :    0.110328    0.001362
  10 H :    0.109625    0.000133
  11 H :    0.110270   -0.000374
  12 H :    0.110266    0.001220

----------------------------------------------------
LOEWDIN REDUCED ORBITAL CHARGES AND SPIN POPULATIONS
----------------------------------------------------
CHARGE
  0 C s       :     2.875998  s :     2.875998
      pz      :     1.062616  p :     3.171939
      px      :     1.054747
      py      :     1.054577
      dz2     :     0.026468  d :     0.111823
      dxz     :     0.018973
      dyz     :     0.017619
      dx2y2   :     0.026154
      dxy     :     0.022609
  1 C s       :     3.017465  s :     3.017465
      pz      :     1.023560  p :     3.149418
      px      :     1.069223
      py      :     1.056635
      dz2     :     0.007364  d :     0.057007
      dxz     :     0.006735
      dyz     :     0.007531
      dx2y2   :     0.022783
      dxy     :     0.012595
  2 C s       :     2.958469  s :     2.958469
      pz      :     1.109125  p :     3.276756
      px      :     1.059116
      py      :     1.108515
      dz2     :     0.017608  d :     0.072688
      dxz     :     0.014551
      dyz     :     0.009472
      dx2y2   :     0.017171
      dxy     :     0.013886
  3 C s       :     2.957283  s :     2.957283
      pz      :     1.113543  p :     3.278068
      px      :     1.104250
      py      :     1.060274
      dz2     :     0.012329  d :     0.072736
      dxz     :     0.013187
      dyz     :     0.016830
      dx2y2   :     0.017475
      dxy     :     0.012914
  4 H s       :     0.883805  s :     0.883805
  5 H s       :     0.888692  s :     0.888692
  6 H s       :     0.887650  s :     0.887650
  7 H s       :     0.889923  s :     0.889923
  8 H s       :     0.890768  s :     0.890768
  9 H s       :     0.889672  s :     0.889672
 10 H s       :     0.890375  s :     0.890375
 11 H s       :     0.889730  s :     0.889730
 12 H s       :     0.889734  s :     0.889734

SPIN
  0 C s       :    -0.004842  s :    -0.004842
      pz      :    -0.009062  p :    -0.026242
      px      :    -0.009243
      py      :    -0.007936
      dz2     :     0.011318  d :     0.017496
      dxz     :     0.004035
      dyz     :     0.000333
      dx2y2   :     0.000402
      dxy     :     0.001408
  1 C s       :     0.039633  s :     0.039633
      pz      :     0.688950  p :     0.943275
      px      :     0.051621
      py      :     0.202704
      dz2     :    -0.000843  d :    -0.003862
      dxz     :    -0.000379
      dyz     :    -0.001338
      dx2y2   :    -0.000795
      dxy     :    -0.000507
  2 C s       :     0.006273  s :     0.006273
      pz      :     0.000805  p :     0.011708
      px      :     0.009211
      py      :     0.001691
      dz2     :     0.000059  d :    -0.000090
      dxz     :    -0.000087
      dyz     :    -0.000022
      dx2y2   :    -0.000062
      dxy     :     0.000022
  3 C s       :     0.003652  s :     0.003652
      pz      :     0.001741  p :     0.007657
      px      :     0.001965
      py      :     0.003951
      dz2     :     0.000089  d :    -0.000161
      dxz     :     0.000193
      dyz     :    -0.000268
      dx2y2   :    -0.000050
      dxy     :    -0.000124
  4 H s       :     0.053515  s :     0.053515
  5 H s       :    -0.025536  s :    -0.025536
  6 H s       :    -0.025783  s :    -0.025783
  7 H s       :    -0.000422  s :    -0.000422
  8 H s       :     0.001387  s :     0.001387
  9 H s       :     0.001362  s :     0.001362
 10 H s       :     0.000133  s :     0.000133
 11 H s       :    -0.000374  s :    -0.000374
 12 H s       :     0.001220  s :     0.001220


                      *****************************
                      * MAYER POPULATION ANALYSIS *
                      *****************************

  NA   - Mulliken gross atomic population
  ZA   - Total nuclear charge
  QA   - Mulliken gross atomic charge
  VA   - Mayer's total valence
  BVA  - Mayer's bonded valence
  FA   - Mayer's free valence

  ATOM       NA         ZA         QA         VA         BVA        FA
  0 C      6.0947     6.0000    -0.0947     4.1949     4.1919     0.0030
  1 C      6.2384     6.0000    -0.2384     3.8843     3.0004     0.8839
  2 C      6.2420     6.0000    -0.2420     3.9544     3.9541     0.0002
  3 C      6.2415     6.0000    -0.2415     3.9563     3.9562     0.0001
  4 H      0.9219     1.0000     0.0781     0.9348     0.9312     0.0036
  5 H      0.9006     1.0000     0.0994     0.9528     0.9500     0.0028
  6 H      0.8972     1.0000     0.1028     0.9537     0.9509     0.0029
  7 H      0.9079     1.0000     0.0921     0.9555     0.9555     0.0000
  8 H      0.9124     1.0000     0.0876     0.9578     0.9578     0.0000
  9 H      0.9123     1.0000     0.0877     0.9634     0.9634     0.0000
 10 H      0.9116     1.0000     0.0884     0.9578     0.9578     0.0000
 11 H      0.9087     1.0000     0.0913     0.9550     0.9550     0.0000
 12 H      0.9108     1.0000     0.0892     0.9617     0.9617     0.0000

  Mayer bond orders larger than 0.100000
B(  0-C ,  1-C ) :   1.0829 B(  0-C ,  2-C ) :   1.0900 B(  0-C ,  3-C ) :   1.0927 
B(  0-C ,  4-H ) :   0.8974 B(  1-C ,  5-H ) :   0.9401 B(  1-C ,  6-H ) :   0.9419 
B(  2-C ,  7-H ) :   0.9581 B(  2-C ,  8-H ) :   0.9567 B(  2-C ,  9-H ) :   0.9586 
B(  3-C , 10-H ) :   0.9577 B(  3-C , 11-H ) :   0.9571 B(  3-C , 12-H ) :   0.9585 


-------
TIMINGS
-------

Total SCF time: 0 days 0 hours 4 min 50 sec 

Total time                  ....     290.431 sec
Sum of individual times     ....     239.429 sec  ( 82.4%)

Fock matrix formation       ....     203.550 sec  ( 70.1%)
  XC integration            ....     104.022 sec  ( 51.1% of F)
    Basis function eval.    ....       0.547 sec  (  0.5% of XC)
    Density eval.           ....       0.382 sec  (  0.4% of XC)
    XC-Functional eval.     ....       0.231 sec  (  0.2% of XC)
    XC-Potential eval.      ....       0.515 sec  (  0.5% of XC)
Diagonalization             ....       8.073 sec  (  2.8%)
Density matrix formation    ....      12.305 sec  (  4.2%)
Population analysis         ....       8.288 sec  (  2.9%)
Initial guess               ....       0.003 sec  (  0.0%)
Orbital Transformation      ....       0.000 sec  (  0.0%)
Orbital Orthonormalization  ....       0.001 sec  (  0.0%)
DIIS solution               ....       3.501 sec  (  1.2%)
Grid generation             ....       3.708 sec  (  1.3%)


-------------------------------------------------------------------------------
                          DFT DISPERSION CORRECTION                            
                                                                               
                              DFTD3 V3.1  Rev 1                                
                          USING Becke-Johnson damping                          
-------------------------------------------------------------------------------
The B3LYP functional is recognized
Active option DFTDOPT                   ...         4   

molecular C6(AA) [au] = 1132.635335 


            DFT-D V3
 parameters
 s6 scaling factor         :     1.0000 
 a1 scaling factor         :     0.3981 
 s8 scaling factor         :     1.9889 
 a2 scaling factor         :     4.4211 
 ad hoc parameters k1-k3   :    16.0000     1.3333    -4.0000 

 Edisp/kcal,au: -9.021550279173  -0.014376753961 
 E6   /kcal   :  -4.465909229 
 E8   /kcal   :  -4.555641050 
 % E8         :  50.497319294 

-------------------------   ----------------
Dispersion correction           -0.014376754
-------------------------   ----------------


-------------------------   --------------------
FINAL SINGLE POINT ENERGY      -157.545285902588
-------------------------   --------------------

                                *** OPTIMIZATION RUN DONE ***

                            ***************************************
                            *     ORCA property calculations      *
                            ***************************************

                                    ---------------------
                                    Active property flags
                                    ---------------------
   (+) Dipole Moment


------------------------------------------------------------------------------
                       ORCA ELECTRIC PROPERTIES CALCULATION
------------------------------------------------------------------------------

Dipole Moment Calculation                       ... on
Quadrupole Moment Calculation                   ... off
Polarizability Calculation                      ... off
GBWName                                         ... orca7.gbw
Electron density file                           ... orca7.scfp
The origin for moment calculation is the CENTER OF MASS  = ( 0.030081,  0.033113 -0.205683)

-------------
DIPOLE MOMENT
-------------
                                X             Y             Z
Electronic contribution:     -0.76181       0.90536      -0.08023
Nuclear contribution   :      0.80102      -0.90916      -0.02003
                        -----------------------------------------
Total Dipole Moment    :      0.03921      -0.00381      -0.10026
                        -----------------------------------------
Magnitude (a.u.)       :      0.10772
Magnitude (Debye)      :      0.27381



--------------------
Rotational spectrum 
--------------------
 
Rotational constants in cm-1:     0.278840     0.262066     0.153011 
Rotational constants in MHz :  8359.404127  7856.546583  4587.162300 

 Dipole components along the rotational axes: 
x,y,z [a.u.] :     0.002041    -0.052157    -0.094230 
x,y,z [Debye]:     0.005188    -0.132574    -0.239514 

 

Timings for individual modules:

Sum of individual times         ...     6891.481 sec (= 114.858 min)
GTO integral calculation        ...      169.386 sec (=   2.823 min)   2.5 %
SCF iterations                  ...     6573.824 sec (= 109.564 min)  95.4 %
SCF Gradient evaluation         ...       79.360 sec (=   1.323 min)   1.2 %
Geometry relaxation             ...       68.912 sec (=   1.149 min)   1.0 %
                             ****ORCA TERMINATED NORMALLY****
TOTAL RUN TIME: 0 days 1 hours 59 minutes 48 seconds 357 msec
