
                                 *****************
                                 * O   R   C   A *
                                 *****************

           --- An Ab Initio, DFT and Semiempirical electronic structure package ---

                  #######################################################
                  #                        -***-                        #
                  #          Department of theory and spectroscopy      #
                  #               Directorship: Frank Neese             #
                  #        Max Planck Institute fuer Kohlenforschung    #
                  #                Kaiser Wilhelm Platz 1               #
                  #                 D-45470 Muelheim/Ruhr               #
                  #                      Germany                        #
                  #                                                     #
                  #                  All rights reserved                #
                  #                        -***-                        #
                  #######################################################


                         Program Version 4.2.1 -  RELEASE  -


 With contributions from (in alphabetic order):
   Daniel Aravena         : Magnetic Suceptibility
   Michael Atanasov       : Ab Initio Ligand Field Theory (pilot matlab implementation)
   Alexander A. Auer      : GIAO ZORA, VPT2
   Ute Becker             : Parallelization
   Giovanni Bistoni       : ED, misc. LED, open-shell LED, HFLD
   Martin Brehm           : Molecular dynamics
   Dmytro Bykov           : SCF Hessian
   Vijay G. Chilkuri      : MRCI spin determinant printing, contributions to CSF-ICE
   Dipayan Datta          : RHF DLPNO-CCSD density
   Achintya Kumar Dutta   : EOM-CC, STEOM-CC
   Dmitry Ganyushin       : Spin-Orbit,Spin-Spin,Magnetic field MRCI
   Miquel Garcia          : C-PCM Hessian, Gaussian charge scheme
   Yang Guo               : DLPNO-NEVPT2, CIM, IAO-localization
   Andreas Hansen         : Spin unrestricted coupled pair/coupled cluster methods
   Benjamin Helmich-Paris : CASSCF linear response (MC-RPA)
   Lee Huntington         : MR-EOM, pCC
   Robert Izsak           : Overlap fitted RIJCOSX, COSX-SCS-MP3, EOM
   Christian Kollmar      : KDIIS, OOCD, Brueckner-CCSD(T), CCSD density
   Simone Kossmann        : Meta GGA functionals, TD-DFT gradient, OOMP2, MP2 Hessian
   Martin Krupicka        : AUTO-CI
   Lucas Lang             : DCDCAS
   Dagmar Lenk            : GEPOL surface, SMD
   Dimitrios Liakos       : Extrapolation schemes; Compound Job, initial MDCI parallelization
   Dimitrios Manganas     : Further ROCIS development; embedding schemes
   Dimitrios Pantazis     : SARC Basis sets
   Taras Petrenko         : DFT Hessian,TD-DFT gradient, ASA, ECA, R-Raman, ABS, FL, XAS/XES, NRVS
   Peter Pinski           : DLPNO-MP2, DLPNO-MP2 Gradient
   Christoph Reimann      : Effective Core Potentials
   Marius Retegan         : Local ZFS, SOC
   Christoph Riplinger    : Optimizer, TS searches, QM/MM, DLPNO-CCSD(T), (RO)-DLPNO pert. Triples
   Tobias Risthaus        : Range-separated hybrids, TD-DFT gradient, RPA, STAB
   Michael Roemelt        : Original ROCIS implementation
   Masaaki Saitow         : Open-shell DLPNO-CCSD energy and density
   Barbara Sandhoefer     : DKH picture change effects
   Avijit Sen             : IP-ROCIS
   Kantharuban Sivalingam : CASSCF convergence, NEVPT2, FIC-MRCI
   Bernardo de Souza      : ESD, SOC TD-DFT
   Georgi Stoychev        : AutoAux, RI-MP2 NMR
   Willem Van den Heuvel  : Paramagnetic NMR
   Boris Wezisla          : Elementary symmetry handling
   Frank Wennmohs         : Technical directorship


 We gratefully acknowledge several colleagues who have allowed us to
 interface, adapt or use parts of their codes:
   Stefan Grimme, W. Hujo, H. Kruse,             : VdW corrections, initial TS optimization,
                  C. Bannwarth                     DFT functionals, gCP, sTDA/sTD-DF
   Ed Valeev, F. Pavosevic, A. Kumar             : LibInt (2-el integral package), F12 methods
   Garnet Chan, S. Sharma, J. Yang, R. Olivares  : DMRG
   Ulf Ekstrom                                   : XCFun DFT Library
   Mihaly Kallay                                 : mrcc  (arbitrary order and MRCC methods)
   Andreas Klamt, Michael Diedenhofen            : otool_cosmo (COSMO solvation model)
   Jiri Pittner, Ondrej Demel                    : Mk-CCSD
   Frank Weinhold                                : gennbo (NPA and NBO analysis)
   Christopher J. Cramer and Donald G. Truhlar   : smd solvation model
   Lars Goerigk                                  : TD-DFT with DH, B97 family of functionals
   V. Asgeirsson, H. Jonsson                     : NEB implementation
   FAccTs GmbH                                   : IRC, NEB, NEB-TS, Multilevel, MM, QM/MM, CI optimization
   S Lehtola, MJT Oliveira, MAL Marques          : LibXC Library


 Your calculation uses the libint2 library for the computation of 2-el integrals
 For citations please refer to: http://libint.valeyev.net

 Your ORCA version has been built with support for libXC version: 4.2.3
 For citations please refer to: https://tddft.org/programs/libxc/

 This ORCA versions uses:
   CBLAS   interface :  Fast vector & matrix operations
   LAPACKE interface :  Fast linear algebra routines
   SCALAPACK package :  Parallel linear algebra routines


Your calculation utilizes the atom-pairwise dispersion correction
with the Becke-Johnson damping scheme (D3BJ)
Cite in your paper:
S.Grimme, S.Ehrlich, L.Goerigk, J Comput Chem, (2011), 32, 1456–1465 
S.Grimme, J.Antony, S.Ehrlich and H.Krieg, J.Chem.Phys., 132, (2010), 154104 
   

----- Orbital basis set information -----
Your calculation utilizes the basis: def2-SV(P)
   F. Weigend and R. Ahlrichs, Phys. Chem. Chem. Phys. 7, 3297 (2005).

----- AuxJ basis set information -----
Your calculation utilizes the auxiliary basis: def2/J
   F. Weigend, Phys. Chem. Chem. Phys. 8, 1057 (2006).

================================================================================
                                        WARNINGS
                       Please study these warnings very carefully!
================================================================================


WARNING: Geometry Optimization
  ===> : Switching off AutoStart
         For restart on a previous wavefunction, please use MOREAD

INFO   : the flag for use of LIBINT has been found!

================================================================================
                                       INPUT FILE
================================================================================
NAME = orca8.inp
|  1> ! UKS B3LYP def2-SV(P) def2/J D3BJ Opt
|  2> %scf Convergence VeryTight
|  3> SmearTemp 2000
|  4> maxiter 500
|  5> end
|  6> *xyz 0 2
|  7> C -0.078024 0.057177 0.373548
|  8> C 1.265433 -0.608904 0.147611
|  9> C -1.175437 -0.828589 -0.146067
| 10> C -0.094988 1.436795 -0.232256
| 11> H -0.249116 0.163443 1.475314
| 12> H 1.821705 -0.151474 -0.707389
| 13> H 1.106826 -1.685632 -0.082089
| 14> H -0.962242 -1.860898 0.229844
| 15> H -1.196159 -0.908035 -1.249728
| 16> H -2.174879 -0.573486 0.259115
| 17> H -0.392092 2.215481 0.515502
| 18> H 0.958985 1.702901 -0.50014
| 19> H -0.70523 1.500086 -1.15741
| 20> *
| 21> 
| 22>                          ****END OF INPUT****
================================================================================

                       *****************************
                       * Geometry Optimization Run *
                       *****************************

Geometry optimization settings:
Update method            Update   .... BFGS
Choice of coordinates    CoordSys .... Z-matrix Internals
Initial Hessian          InHess   .... Almoef's Model

Convergence Tolerances:
Energy Change            TolE     ....  5.0000e-06 Eh
Max. Gradient            TolMAXG  ....  3.0000e-04 Eh/bohr
RMS Gradient             TolRMSG  ....  1.0000e-04 Eh/bohr
Max. Displacement        TolMAXD  ....  4.0000e-03 bohr
RMS Displacement         TolRMSD  ....  2.0000e-03 bohr
Strict Convergence                ....  False
------------------------------------------------------------------------------
                        ORCA OPTIMIZATION COORDINATE SETUP
------------------------------------------------------------------------------

The optimization will be done in new redundant internal coordinates
Making redundant internal coordinates   ...  (new redundants) done
Evaluating the initial hessian          ...  (Almloef) done
Evaluating the coordinates              ...  done
Calculating the B-matrix                .... done
Calculating the G-matrix                .... done
Diagonalizing the G-matrix              .... done
The first mode is                       ....   24
The number of degrees of freedom        ....   33

    -----------------------------------------------------------------
                    Redundant Internal Coordinates


    -----------------------------------------------------------------
         Definition                    Initial Value    Approx d2E/dq
    -----------------------------------------------------------------
      1. B(C   1,C   0)                  1.5164         0.392656   
      2. B(C   2,C   0)                  1.5030         0.412586   
      3. B(C   3,C   0)                  1.5069         0.406718   
      4. B(H   4,C   0)                  1.1200         0.322494   
      5. B(H   5,C   1)                  1.1179         0.325017   
      6. B(H   6,C   1)                  1.1123         0.331748   
      7. B(H   7,C   2)                  1.1191         0.323570   
      8. B(H   8,C   2)                  1.1067         0.338659   
      9. B(H   9,C   2)                  1.1082         0.336796   
     10. B(H  10,C   3)                  1.1197         0.322859   
     11. B(H  11,C   3)                  1.1196         0.323034   
     12. B(H  12,C   3)                  1.1101         0.334474   
     13. A(C   1,C   0,H   4)          108.8789         0.321120   
     14. A(C   2,C   0,H   4)          106.5271         0.323735   
     15. A(C   1,C   0,C   2)          109.6638         0.372771   
     16. A(C   1,C   0,C   3)          110.6234         0.371852   
     17. A(C   2,C   0,C   3)          113.1019         0.375040   
     18. A(C   3,C   0,H   4)          107.8719         0.322975   
     19. A(H   5,C   1,H   6)          108.0053         0.282584   
     20. A(C   0,C   1,H   6)          109.2461         0.322611   
     21. A(C   0,C   1,H   5)          112.0282         0.321529   
     22. A(H   7,C   2,H   9)          105.1491         0.283051   
     23. A(C   0,C   2,H   9)          113.3554         0.326052   
     24. A(H   7,C   2,H   8)          105.8026         0.283293   
     25. A(C   0,C   2,H   8)          113.6252         0.326348   
     26. A(H   8,C   2,H   9)          111.3613         0.285063   
     27. A(C   0,C   2,H   7)          106.7624         0.323912   
     28. A(H  11,C   3,H  12)          107.7311         0.282674   
     29. A(H  10,C   3,H  12)          111.7799         0.282651   
     30. A(C   0,C   3,H  12)          113.1688         0.324915   
     31. A(H  10,C   3,H  11)          104.1398         0.281131   
     32. A(C   0,C   3,H  11)          107.6507         0.323064   
     33. A(C   0,C   3,H  10)          111.7905         0.323035   
     34. D(H   6,C   1,C   0,C   3)   -140.8804         0.011462   
     35. D(H   6,C   1,C   0,H   4)    100.7445         0.011462   
     36. D(H   6,C   1,C   0,C   2)    -15.4525         0.011462   
     37. D(H   5,C   1,C   0,H   4)   -139.6222         0.011462   
     38. D(H   5,C   1,C   0,C   2)    104.1809         0.011462   
     39. D(H   5,C   1,C   0,C   3)    -21.2470         0.011462   
     40. D(H   7,C   2,C   0,C   1)     46.4760         0.013480   
     41. D(H   9,C   2,C   0,C   1)    161.7756         0.013480   
     42. D(H   8,C   2,C   0,H   4)    172.5587         0.013480   
     43. D(H   8,C   2,C   0,C   1)    -69.7668         0.013480   
     44. D(H   7,C   2,C   0,H   4)    -71.1985         0.013480   
     45. D(H   7,C   2,C   0,C   3)    170.4681         0.013480   
     46. D(H   9,C   2,C   0,C   3)    -74.2323         0.013480   
     47. D(H   9,C   2,C   0,H   4)     44.1011         0.013480   
     48. D(H   8,C   2,C   0,C   3)     54.2253         0.013480   
     49. D(H  12,C   3,C   0,H   4)   -134.1707         0.013110   
     50. D(H  12,C   3,C   0,C   1)    106.8427         0.013110   
     51. D(H  11,C   3,C   0,H   4)    106.8952         0.013110   
     52. D(H  11,C   3,C   0,C   2)   -135.5562         0.013110   
     53. D(H  11,C   3,C   0,C   1)    -12.0914         0.013110   
     54. D(H  10,C   3,C   0,H   4)     -6.8888         0.013110   
     55. D(H  12,C   3,C   0,C   2)    -16.6221         0.013110   
     56. D(H  10,C   3,C   0,C   2)    110.6597         0.013110   
     57. D(H  10,C   3,C   0,C   1)   -125.8754         0.013110   
    -----------------------------------------------------------------

Number of atoms                         .... 13
Number of degrees of freedom            .... 57

Time needed for optimization step       :     6.92 sec

         *************************************************************
         *                GEOMETRY OPTIMIZATION CYCLE   1            *
         *************************************************************
---------------------------------
CARTESIAN COORDINATES (ANGSTROEM)
---------------------------------
  C     -0.078024    0.057177    0.373548
  C      1.265433   -0.608904    0.147611
  C     -1.175437   -0.828589   -0.146067
  C     -0.094988    1.436795   -0.232256
  H     -0.249116    0.163443    1.475314
  H      1.821705   -0.151474   -0.707389
  H      1.106826   -1.685632   -0.082089
  H     -0.962242   -1.860898    0.229844
  H     -1.196159   -0.908035   -1.249728
  H     -2.174879   -0.573486    0.259115
  H     -0.392092    2.215481    0.515502
  H      0.958985    1.702901   -0.500140
  H     -0.705230    1.500086   -1.157410

----------------------------
CARTESIAN COORDINATES (A.U.)
----------------------------
  NO LB      ZA    FRAG     MASS         X           Y           Z
   0 C     6.0000    0    12.011   -0.147444    0.108049    0.705903
   1 C     6.0000    0    12.011    2.391322   -1.150662    0.278944
   2 C     6.0000    0    12.011   -2.221254   -1.565806   -0.276027
   3 C     6.0000    0    12.011   -0.179501    2.715149   -0.438900
   4 H     1.0000    0     1.008   -0.470761    0.308863    2.787939
   5 H     1.0000    0     1.008    3.442524   -0.286244   -1.336771
   6 H     1.0000    0     1.008    2.091598   -3.185383   -0.155126
   7 H     1.0000    0     1.008   -1.818374   -3.516588    0.434342
   8 H     1.0000    0     1.008   -2.260413   -1.715937   -2.361644
   9 H     1.0000    0     1.008   -4.109926   -1.083731    0.489656
  10 H     1.0000    0     1.008   -0.740946    4.186652    0.974158
  11 H     1.0000    0     1.008    1.812219    3.218017   -0.945128
  12 H     1.0000    0     1.008   -1.332692    2.834752   -2.187188

--------------------------------
INTERNAL COORDINATES (ANGSTROEM)
--------------------------------
 C      0   0   0     0.000000000000     0.00000000     0.00000000
 C      1   0   0     1.516439295646     0.00000000     0.00000000
 C      1   2   0     1.502962556935   109.66379258     0.00000000
 C      1   2   3     1.506861669045   110.62339823   234.57211492
 H      1   2   3     1.120023773844   108.87893903   116.19697391
 H      2   1   3     1.117902385222   112.02819761   104.18087602
 H      2   1   3     1.112322550537   109.24611216   344.54752470
 H      3   1   2     1.119117089239   106.76240499    46.47602117
 H      3   1   2     1.106710744107   113.62524351   290.23319875
 H      3   1   2     1.108212211220   113.35541602   161.77559855
 H      4   1   2     1.119716347999   111.79053829   234.12457840
 H      4   1   2     1.119568365675   107.65066419   347.90860053
 H      4   1   2     1.110095028798   113.16875306   106.84272130

---------------------------
INTERNAL COORDINATES (A.U.)
---------------------------
 C      0   0   0     0.000000000000     0.00000000     0.00000000
 C      1   0   0     2.865654967487     0.00000000     0.00000000
 C      1   2   0     2.840187622146   109.66379258     0.00000000
 C      1   2   3     2.847555876198   110.62339823   234.57211492
 H      1   2   3     2.116538196046   108.87893903   116.19697391
 H      2   1   3     2.112529352526   112.02819761   104.18087602
 H      2   1   3     2.101984993100   109.24611216   344.54752470
 H      3   1   2     2.114824810453   106.76240499    46.47602117
 H      3   1   2     2.091380215830   113.62524351   290.23319875
 H      3   1   2     2.094217577473   113.35541602   161.77559855
 H      4   1   2     2.115957245392   111.79053829   234.12457840
 H      4   1   2     2.115677599328   107.65066419   347.90860053
 H      4   1   2     2.097775587055   113.16875306   106.84272130

---------------------
BASIS SET INFORMATION
---------------------
There are 2 groups of distinct atoms

 Group   1 Type C   : 7s4p1d contracted to 3s2p1d pattern {511/31/1}
 Group   2 Type H   : 4s contracted to 2s pattern {31}

Atom   0C    basis set group =>   1
Atom   1C    basis set group =>   1
Atom   2C    basis set group =>   1
Atom   3C    basis set group =>   1
Atom   4H    basis set group =>   2
Atom   5H    basis set group =>   2
Atom   6H    basis set group =>   2
Atom   7H    basis set group =>   2
Atom   8H    basis set group =>   2
Atom   9H    basis set group =>   2
Atom  10H    basis set group =>   2
Atom  11H    basis set group =>   2
Atom  12H    basis set group =>   2
---------------------------------
AUXILIARY/J BASIS SET INFORMATION
---------------------------------
There are 2 groups of distinct atoms

 Group   1 Type C   : 12s5p4d2f1g contracted to 6s4p3d1f1g pattern {711111/2111/211/2/1}
 Group   2 Type H   : 5s2p1d contracted to 3s1p1d pattern {311/2/1}

Atom   0C    basis set group =>   1
Atom   1C    basis set group =>   1
Atom   2C    basis set group =>   1
Atom   3C    basis set group =>   1
Atom   4H    basis set group =>   2
Atom   5H    basis set group =>   2
Atom   6H    basis set group =>   2
Atom   7H    basis set group =>   2
Atom   8H    basis set group =>   2
Atom   9H    basis set group =>   2
Atom  10H    basis set group =>   2
Atom  11H    basis set group =>   2
Atom  12H    basis set group =>   2
------------------------------------------------------------------------------
                           ORCA GTO INTEGRAL CALCULATION
------------------------------------------------------------------------------

                         BASIS SET STATISTICS AND STARTUP INFO

 # of primitive gaussian shells          ...   84
 # of primitive gaussian functions       ...  132
 # of contracted shells                  ...   42
 # of contracted basis functions         ...   74
 Highest angular momentum                ...    2
 Maximum contraction depth               ...    5
 Integral package used                   ... LIBINT
 Integral threshhold            Thresh   ...  1.000e-12
 Primitive cut-off              TCut     ...  1.000e-14


------------------------------ INTEGRAL EVALUATION ----------------------------


 * One electron integrals 
 Pre-screening matrix                    ... done
 Shell pair data                         ... done (   0.000 sec)

-------------------------------------------------------------------------------
                                 ORCA SCF
-------------------------------------------------------------------------------

------------
SCF SETTINGS
------------
Hamiltonian:
 Density Functional     Method          .... DFT(GTOs)
 Exchange Functional    Exchange        .... B88
   X-Alpha parameter    XAlpha          ....  0.666667
   Becke's b parameter  XBeta           ....  0.004200
 Correlation Functional Correlation     .... LYP
 LDA part of GGA corr.  LDAOpt          .... VWN-5
 Gradients option       PostSCFGGA      .... off
 Hybrid DFT is turned on
   Fraction HF Exchange ScalHFX         ....  0.200000
   Scaling of DF-GGA-X  ScalDFX         ....  0.720000
   Scaling of DF-GGA-C  ScalDFC         ....  0.810000
   Scaling of DF-LDA-C  ScalLDAC        ....  1.000000
   Perturbative correction              ....  0.000000
   Density functional embedding theory  .... OFF
   NL short-range parameter             ....  4.800000


General Settings:
 Integral files         IntName         .... orca8
 Hartree-Fock type      HFTyp           .... UHF
 Total Charge           Charge          ....    0
 Multiplicity           Mult            ....    2
 Number of Electrons    NEL             ....   33
 Basis Dimension        Dim             ....   74
 Nuclear Repulsion      ENuc            ....    127.1103942481 Eh

Convergence Acceleration:
 DIIS                   CNVDIIS         .... on
   Start iteration      DIISMaxIt       ....    12
   Startup error        DIISStart       ....  0.200000
   # of expansion vecs  DIISMaxEq       ....     5
   Bias factor          DIISBfac        ....   1.050
   Max. coefficient     DIISMaxC        ....  10.000
 Newton-Raphson         CNVNR           .... off
 SOSCF                  CNVSOSCF        .... off
 Level Shifting         CNVShift        .... on
   Level shift para.    LevelShift      ....    0.2500
   Turn off err/grad.   ShiftErr        ....    0.0010
 Zerner damping         CNVZerner       .... off
 Static damping         CNVDamp         .... on
   Fraction old density DampFac         ....    0.7000
   Max. Damping (<1)    DampMax         ....    0.9800
   Min. Damping (>=0)   DampMin         ....    0.0000
   Turn off err/grad.   DampErr         ....    0.1000
 Fernandez-Rico         CNVRico         .... off

SCF Procedure:
 Maximum # iterations   MaxIter         ....   500
 SCF integral mode      SCFMode         .... Direct
   Integral package                     .... LIBINT
 Reset frequency        DirectResetFreq ....    20
 Integral Threshold     Thresh          ....  1.000e-12 Eh
 Primitive CutOff       TCut            ....  1.000e-14 Eh

Convergence Tolerance:
 Convergence Check Mode ConvCheckMode   .... Total+1el-Energy
 Convergence forced     ConvForced      .... 0
 Energy Change          TolE            ....  1.000e-09 Eh
 1-El. energy change                    ....  1.000e-06 Eh
 DIIS Error             TolErr          ....  1.000e-08


Diagonalization of the overlap matrix:
Smallest eigenvalue                        ... 1.770e-03
Time for diagonalization                   ...    0.001 sec
Threshold for overlap eigenvalues          ... 1.000e-08
Number of eigenvalues below threshold      ... 0
Time for construction of square roots      ...    5.270 sec
Total time needed                          ...    5.271 sec

-------------------
DFT GRID GENERATION
-------------------

General Integration Accuracy     IntAcc      ...  4.340
Radial Grid Type                 RadialGrid  ... Gauss-Chebyshev
Angular Grid (max. acc.)         AngularGrid ... Lebedev-110
Angular grid pruning method      GridPruning ... 3 (G Style)
Weight generation scheme         WeightScheme... Becke
Basis function cutoff            BFCut       ...    1.0000e-12
Integration weight cutoff        WCut        ...    1.0000e-14
Grids for H and He will be reduced by one unit

# of grid points (after initial pruning)     ...  13770 (   0.0 sec)
# of grid points (after weights+screening)   ...  12891 (   0.0 sec)
nearest neighbour list constructed           ...    0.0 sec
Grid point re-assignment to atoms done       ...    0.0 sec
Grid point division into batches done        ...    0.0 sec
Reduced shell lists constructed in    0.1 sec

Total number of grid points                  ...    12891
Total number of batches                      ...      208
Average number of points per batch           ...       61
Average number of grid points per atom       ...      992
Average number of shells per batch           ...    37.43 (89.12%)
Average number of basis functions per batch  ...    66.74 (90.19%)
Average number of large shells per batch     ...    33.01 (88.20%)
Average number of large basis fcns per batch ...    58.53 (87.69%)
Maximum spatial batch extension              ...  20.35, 20.05, 23.15 au
Average spatial batch extension              ...   4.03,  4.00,  3.94 au

Time for grid setup =    2.547 sec

------------------------------
INITIAL GUESS: MODEL POTENTIAL
------------------------------
Loading Hartree-Fock densities                     ... done
Calculating cut-offs                               ... done
Setting up the integral package                    ... done
Initializing the effective Hamiltonian             ... done
Starting the Coulomb interaction                   ... done (   0.0 sec)
Reading the grid                                   ... done
Mapping shells                                     ... done
Starting the XC term evaluation                    ... done (   0.1 sec)
  promolecular density results
     # of electrons  =     32.998879150
     EX              =    -23.182574208
     EC              =     -1.032245174
     EX+EC           =    -24.214819382
Transforming the Hamiltonian                       ... done (   0.6 sec)
Diagonalizing the Hamiltonian                      ... done (   0.0 sec)
Back transforming the eigenvectors                 ... done (   0.0 sec)
Now organizing SCF variables                       ... done
                      ------------------
                      INITIAL GUESS DONE (   3.3 sec)
                      ------------------
--------------
SCF ITERATIONS
--------------
ITER       Energy         Delta-E        Max-DP      RMS-DP      [F,P]     Damp
               ***  Starting incremental Fock matrix formation  ***
  0   -157.3603482438   0.000000000000 0.04188335  0.00205668  0.1674965 0.7000
  1   -157.4278993163  -0.067551072464 0.02570465  0.00147503  0.0858620 0.7000
                               ***Turning on DIIS***
  2   -157.4550175109  -0.027118194617 0.03588696  0.00244375  0.0310457 0.0000
  3   -157.4921859509  -0.037168440043 0.01759233  0.00103857  0.0475108 0.0000
  4   -157.5042784594  -0.012092508470 0.00581974  0.00031588  0.0088816 0.0000
  5   -157.5048975889  -0.000619129463 0.00191165  0.00011022  0.0021548 0.0000
  6   -157.5049504902  -0.000052901347 0.00118534  0.00007198  0.0007774 0.0000
  7   -157.5049622596  -0.000011769409 0.00043134  0.00001521  0.0001896 0.0000
  8   -157.5049631922  -0.000000932526 0.00013199  0.00000450  0.0000917 0.0000
  9   -157.5049632980  -0.000000105826 0.00006480  0.00000199  0.0000470 0.0000
 10   -157.5049633209  -0.000000022891 0.00002246  0.00000076  0.0000084 0.0000
 11   -157.5049633249  -0.000000004045 0.00001121  0.00000043  0.0000037 0.0000
 12   -157.5049633260  -0.000000001079 0.00000352  0.00000012  0.0000016 0.0000
 13   -157.5049633261  -0.000000000141 0.00000370  0.00000013  0.0000008 0.0000
 14   -157.5049633262  -0.000000000092 0.00000130  0.00000005  0.0000004 0.0000
 15   -157.5049633262  -0.000000000002 0.00000078  0.00000003  0.0000002 0.0000
 16   -157.5049633262  -0.000000000003 0.00000012  0.00000000  0.0000002 0.0000
                 **** Energy Check signals convergence ****

 Fermi smearing  (ALPHA): E(HOMO(Eh)) = -0.323132 MUE = -0.085993 gap=   7.874 eV
 Fermi smearing   (BETA): E(HOMO(Eh)) = -0.317060 MUE = -0.192352 gap=   6.764 eV

N_FOD(alpha) =  0.000000
 N_FOD(beta) =  0.000000
       N_FOD =  0.000000

               *****************************************************
               *                     SUCCESS                       *
               *           SCF CONVERGED AFTER  17 CYCLES          *
               *****************************************************

Setting up the final grid:

General Integration Accuracy     IntAcc      ...  4.670
Radial Grid Type                 RadialGrid  ... Gauss-Chebyshev
Angular Grid (max. acc.)         AngularGrid ... Lebedev-302
Angular grid pruning method      GridPruning ... 3 (G Style)
Weight generation scheme         WeightScheme... Becke
Basis function cutoff            BFCut       ...    1.0000e-12
Integration weight cutoff        WCut        ...    1.0000e-14
Grids for H and He will be reduced by one unit

# of grid points (after initial pruning)     ...  55394 (   0.0 sec)
# of grid points (after weights+screening)   ...  51147 (   0.1 sec)
nearest neighbour list constructed           ...    0.0 sec
Grid point re-assignment to atoms done       ...    0.0 sec
Grid point division into batches done        ...    0.1 sec
Reduced shell lists constructed in    0.3 sec

Total number of grid points                  ...    51147
Total number of batches                      ...      807
Average number of points per batch           ...       63
Average number of grid points per atom       ...     3934
Average number of shells per batch           ...    35.03 (83.42%)
Average number of basis functions per batch  ...    62.29 (84.18%)
Average number of large shells per batch     ...    30.17 (86.12%)
Average number of large basis fcns per batch ...    53.21 (85.42%)
Maximum spatial batch extension              ...  19.66, 18.47, 19.19 au
Average spatial batch extension              ...   2.61,  2.64,  2.61 au

Final grid set up in    1.9 sec
Final integration                            ... done (  16.3 sec)
Change in XC energy                          ...     0.000135141
Integrated number of electrons               ...    33.000044706
Previous integrated no of electrons          ...    33.002240561

----------------
TOTAL SCF ENERGY
----------------

Total Energy       :         -157.50482819 Eh           -4285.92427 eV

Components:
Nuclear Repulsion  :          127.11039425 Eh            3458.84967 eV
Electronic Energy  :         -284.61522243 Eh           -7744.77394 eV
One Electron Energy:         -461.70301103 Eh          -12563.57765 eV
Two Electron Energy:          177.08778859 Eh            4818.80371 eV

Virial components:
Potential Energy   :         -313.35709403 Eh           -8526.88003 eV
Kinetic Energy     :          155.85226584 Eh            4240.95576 eV
Virial Ratio       :            2.01060339


DFT components:
N(Alpha)           :       17.000024969634 electrons
N(Beta)            :       16.000019736065 electrons
N(Total)           :       33.000044705699 electrons
E(X)               :      -18.876875261672 Eh       
E(C)               :       -1.220787221690 Eh       
E(XC)              :      -20.097662483363 Eh       
DFET-embed. en.    :        0.000000000000 Eh       

---------------
SCF CONVERGENCE
---------------

  Last Energy change         ...   -1.2676e-11  Tolerance :   1.0000e-09
  Last MAX-Density change    ...    1.5087e-07  Tolerance :   1.0000e-08
  Last RMS-Density change    ...    5.9794e-09  Tolerance :   1.0000e-09
  Last DIIS Error            ...    2.9236e-08  Tolerance :   1.0000e-08

             **** THE GBW FILE WAS UPDATED (orca8.gbw) ****
             **** DENSITY FILE WAS UPDATED (orca8.scfp) ****
             **** ENERGY FILE WAS UPDATED (orca8.en.tmp) ****
             **** THE GBW FILE WAS UPDATED (orca8.gbw) ****
             **** DENSITY FILE WAS UPDATED (orca8.scfp) ****
----------------
ORBITAL ENERGIES
----------------
                 SPIN UP ORBITALS
  NO   OCC          E(Eh)            E(eV) 
   0   1.0000     -10.189218      -277.2627 
   1   1.0000     -10.184745      -277.1410 
   2   1.0000     -10.172164      -276.7986 
   3   1.0000     -10.167815      -276.6803 
   4   1.0000      -0.804933       -21.9033 
   5   1.0000      -0.677387       -18.4326 
   6   1.0000      -0.658889       -17.9293 
   7   1.0000      -0.552362       -15.0305 
   8   1.0000      -0.456766       -12.4292 
   9   1.0000      -0.438281       -11.9262 
  10   1.0000      -0.425261       -11.5719 
  11   1.0000      -0.391165       -10.6441 
  12   1.0000      -0.361820        -9.8456 
  13   1.0000      -0.347182        -9.4473 
  14   1.0000      -0.332422        -9.0457 
  15   1.0000      -0.323132        -8.7929 
  16   1.0000      -0.230667        -6.2768 
  17   0.0000       0.058682         1.5968 
  18   0.0000       0.084599         2.3020 
  19   0.0000       0.105025         2.8579 
  20   0.0000       0.109316         2.9746 
  21   0.0000       0.116472         3.1694 
  22   0.0000       0.136583         3.7166 
  23   0.0000       0.145681         3.9642 
  24   0.0000       0.158972         4.3259 
  25   0.0000       0.173799         4.7293 
  26   0.0000       0.220322         5.9953 
  27   0.0000       0.270158         7.3514 
  28   0.0000       0.292424         7.9573 
  29   0.0000       0.415094        11.2953 
  30   0.0000       0.430402        11.7118 
  31   0.0000       0.441227        12.0064 
  32   0.0000       0.485043        13.1987 
  33   0.0000       0.497453        13.5364 
  34   0.0000       0.506520        13.7831 
  35   0.0000       0.553061        15.0495 
  36   0.0000       0.598844        16.2954 
  37   0.0000       0.617377        16.7997 
  38   0.0000       0.655542        17.8382 
  39   0.0000       0.662567        18.0294 
  40   0.0000       0.672945        18.3118 
  41   0.0000       0.686682        18.6856 
  42   0.0000       0.691841        18.8259 
  43   0.0000       0.704321        19.1656 
  44   0.0000       0.707697        19.2574 
  45   0.0000       0.717633        19.5278 
  46   0.0000       0.725662        19.7463 
  47   0.0000       0.736143        20.0315 
  48   0.0000       0.739384        20.1197 
  49   0.0000       0.748187        20.3592 
  50   0.0000       0.820541        22.3281 
  51   0.0000       0.874567        23.7982 
  52   0.0000       0.939124        25.5549 
  53   0.0000       1.107655        30.1408 
  54   0.0000       1.391770        37.8720 
  55   0.0000       1.422556        38.7097 
  56   0.0000       1.746018        47.5116 
  57   0.0000       1.781633        48.4807 
  58   0.0000       1.797297        48.9069 
  59   0.0000       1.835891        49.9571 
  60   0.0000       1.876574        51.0642 
  61   0.0000       1.918087        52.1938 
  62   0.0000       1.985805        54.0365 
  63   0.0000       2.023048        55.0499 
  64   0.0000       2.051816        55.8328 
  65   0.0000       2.080328        56.6086 
  66   0.0000       2.146773        58.4167 
  67   0.0000       2.173108        59.1333 
  68   0.0000       2.199413        59.8491 
  69   0.0000       2.422285        65.9137 
  70   0.0000       2.445873        66.5556 
  71   0.0000       2.462508        67.0082 
  72   0.0000       2.691086        73.2282 
  73   0.0000       2.707220        73.6672 

                 SPIN DOWN ORBITALS
  NO   OCC          E(Eh)            E(eV) 
   0   1.0000     -10.185096      -277.1505 
   1   1.0000     -10.174099      -276.8513 
   2   1.0000     -10.171364      -276.7769 
   3   1.0000     -10.167700      -276.6772 
   4   1.0000      -0.798400       -21.7256 
   5   1.0000      -0.676505       -18.4086 
   6   1.0000      -0.636752       -17.3269 
   7   1.0000      -0.545911       -14.8550 
   8   1.0000      -0.451939       -12.2979 
   9   1.0000      -0.432954       -11.7813 
  10   1.0000      -0.420618       -11.4456 
  11   1.0000      -0.390407       -10.6235 
  12   1.0000      -0.351718        -9.5707 
  13   1.0000      -0.341670        -9.2973 
  14   1.0000      -0.330565        -8.9951 
  15   1.0000      -0.317060        -8.6277 
  16   0.0000      -0.068490        -1.8637 
  17   0.0000       0.060603         1.6491 
  18   0.0000       0.088185         2.3996 
  19   0.0000       0.106628         2.9015 
  20   0.0000       0.111022         3.0211 
  21   0.0000       0.120928         3.2906 
  22   0.0000       0.139032         3.7833 
  23   0.0000       0.148935         4.0527 
  24   0.0000       0.161082         4.3833 
  25   0.0000       0.177812         4.8385 
  26   0.0000       0.223240         6.0747 
  27   0.0000       0.276700         7.5294 
  28   0.0000       0.298940         8.1346 
  29   0.0000       0.417171        11.3518 
  30   0.0000       0.433052        11.7839 
  31   0.0000       0.450181        12.2501 
  32   0.0000       0.495933        13.4950 
  33   0.0000       0.511244        13.9117 
  34   0.0000       0.545724        14.8499 
  35   0.0000       0.561659        15.2835 
  36   0.0000       0.608268        16.5518 
  37   0.0000       0.625286        17.0149 
  38   0.0000       0.660643        17.9770 
  39   0.0000       0.664980        18.0950 
  40   0.0000       0.679648        18.4942 
  41   0.0000       0.692153        18.8344 
  42   0.0000       0.696753        18.9596 
  43   0.0000       0.706511        19.2251 
  44   0.0000       0.709771        19.3138 
  45   0.0000       0.720289        19.6001 
  46   0.0000       0.729323        19.8459 
  47   0.0000       0.740039        20.1375 
  48   0.0000       0.746880        20.3236 
  49   0.0000       0.754615        20.5341 
  50   0.0000       0.825109        22.4523 
  51   0.0000       0.883729        24.0475 
  52   0.0000       0.940466        25.5914 
  53   0.0000       1.111619        30.2487 
  54   0.0000       1.399534        38.0833 
  55   0.0000       1.431678        38.9579 
  56   0.0000       1.760119        47.8953 
  57   0.0000       1.801838        49.0305 
  58   0.0000       1.809828        49.2479 
  59   0.0000       1.873997        50.9940 
  60   0.0000       1.894557        51.5535 
  61   0.0000       1.929895        52.5151 
  62   0.0000       1.994996        54.2866 
  63   0.0000       2.035553        55.3902 
  64   0.0000       2.064820        56.1866 
  65   0.0000       2.091525        56.9133 
  66   0.0000       2.159387        58.7599 
  67   0.0000       2.187104        59.5141 
  68   0.0000       2.210259        60.1442 
  69   0.0000       2.432914        66.2030 
  70   0.0000       2.453132        66.7531 
  71   0.0000       2.468901        67.1822 
  72   0.0000       2.693035        73.2812 
  73   0.0000       2.715377        73.8892 

                    ********************************
                    * MULLIKEN POPULATION ANALYSIS *
                    ********************************

------------------------------------------
FOD BASED MULLIKEN REDUCED ORBITAL CHARGES
------------------------------------------
  0 C s       :    -0.000000  s :    -0.000000
      pz      :     0.000000  p :     0.000000
      px      :     0.000000
      py      :     0.000000
      dz2     :     0.000000  d :     0.000000
      dxz     :     0.000000
      dyz     :     0.000000
      dx2y2   :     0.000000
      dxy     :     0.000000
  1 C s       :     0.000000  s :     0.000000
      pz      :     0.000000  p :     0.000000
      px      :     0.000000
      py      :     0.000000
      dz2     :     0.000000  d :     0.000000
      dxz     :     0.000000
      dyz     :     0.000000
      dx2y2   :     0.000000
      dxy     :     0.000000
  2 C s       :    -0.000000  s :    -0.000000
      pz      :     0.000000  p :     0.000000
      px      :     0.000000
      py      :     0.000000
      dz2     :     0.000000  d :     0.000000
      dxz     :     0.000000
      dyz     :     0.000000
      dx2y2   :     0.000000
      dxy     :     0.000000
  3 C s       :    -0.000000  s :    -0.000000
      pz      :     0.000000  p :     0.000000
      px      :     0.000000
      py      :     0.000000
      dz2     :     0.000000  d :     0.000000
      dxz     :     0.000000
      dyz     :     0.000000
      dx2y2   :     0.000000
      dxy     :     0.000000
  4 H s       :     0.000000  s :     0.000000
  5 H s       :     0.000000  s :     0.000000
  6 H s       :     0.000000  s :     0.000000
  7 H s       :     0.000000  s :     0.000000
  8 H s       :     0.000000  s :     0.000000
  9 H s       :     0.000000  s :     0.000000
 10 H s       :     0.000000  s :     0.000000
 11 H s       :     0.000000  s :     0.000000
 12 H s       :     0.000000  s :     0.000000


                     *******************************
                     * LOEWDIN POPULATION ANALYSIS *
                     *******************************

-------------------------------------------
LOEWDIN ATOMIC CHARGES AND SPIN POPULATIONS
-------------------------------------------
   0 C :   -0.176677   -0.000153
   1 C :   -0.205147    0.954258
   2 C :   -0.304954    0.026253
   3 C :   -0.308813    0.004677
   4 H :    0.119618    0.033394
   5 H :    0.105638   -0.012657
   6 H :    0.103033   -0.013355
   7 H :    0.108668    0.000809
   8 H :    0.110175    0.000336
   9 H :    0.112028    0.006864
  10 H :    0.112722   -0.000075
  11 H :    0.110826   -0.000161
  12 H :    0.112885   -0.000189

----------------------------------------------------
LOEWDIN REDUCED ORBITAL CHARGES AND SPIN POPULATIONS
----------------------------------------------------
CHARGE
  0 C s       :     2.871252  s :     2.871252
      pz      :     1.071175  p :     3.192723
      px      :     1.058232
      py      :     1.063316
      dz2     :     0.029534  d :     0.112702
      dxz     :     0.012743
      dyz     :     0.015882
      dx2y2   :     0.026439
      dxy     :     0.028105
  1 C s       :     3.059865  s :     3.059865
      pz      :     0.987671  p :     3.085012
      px      :     1.020215
      py      :     1.077126
      dz2     :     0.009771  d :     0.060270
      dxz     :     0.010526
      dyz     :     0.007936
      dx2y2   :     0.019744
      dxy     :     0.012292
  2 C s       :     2.954889  s :     2.954889
      pz      :     1.105975  p :     3.273300
      px      :     1.077918
      py      :     1.089407
      dz2     :     0.023731  d :     0.076765
      dxz     :     0.010036
      dyz     :     0.008619
      dx2y2   :     0.022154
      dxy     :     0.012224
  3 C s       :     2.956328  s :     2.956328
      pz      :     1.102085  p :     3.278828
      px      :     1.111907
      py      :     1.064836
      dz2     :     0.011130  d :     0.073657
      dxz     :     0.013787
      dyz     :     0.019225
      dx2y2   :     0.019497
      dxy     :     0.010017
  4 H s       :     0.880382  s :     0.880382
  5 H s       :     0.894362  s :     0.894362
  6 H s       :     0.896967  s :     0.896967
  7 H s       :     0.891332  s :     0.891332
  8 H s       :     0.889825  s :     0.889825
  9 H s       :     0.887972  s :     0.887972
 10 H s       :     0.887278  s :     0.887278
 11 H s       :     0.889174  s :     0.889174
 12 H s       :     0.887115  s :     0.887115

SPIN
  0 C s       :    -0.003207  s :    -0.003207
      pz      :    -0.004138  p :    -0.009645
      px      :    -0.001237
      py      :    -0.004270
      dz2     :     0.003300  d :     0.012698
      dxz     :     0.006189
      dyz     :     0.001181
      dx2y2   :     0.000611
      dxy     :     0.001417
  1 C s       :     0.097700  s :     0.097700
      pz      :     0.557961  p :     0.860484
      px      :     0.274952
      py      :     0.027570
      dz2     :    -0.001067  d :    -0.003926
      dxz     :    -0.000740
      dyz     :    -0.000708
      dx2y2   :    -0.000865
      dxy     :    -0.000546
  2 C s       :     0.009147  s :     0.009147
      pz      :     0.001294  p :     0.016417
      px      :     0.009214
      py      :     0.005909
      dz2     :    -0.000148  d :     0.000689
      dxz     :     0.000047
      dyz     :     0.000024
      dx2y2   :     0.000666
      dxy     :     0.000100
  3 C s       :     0.001177  s :     0.001177
      pz      :     0.001300  p :     0.003522
      px      :    -0.000042
      py      :     0.002263
      dz2     :     0.000105  d :    -0.000022
      dxz     :    -0.000108
      dyz     :    -0.000114
      dx2y2   :    -0.000095
      dxy     :     0.000190
  4 H s       :     0.033394  s :     0.033394
  5 H s       :    -0.012657  s :    -0.012657
  6 H s       :    -0.013355  s :    -0.013355
  7 H s       :     0.000809  s :     0.000809
  8 H s       :     0.000336  s :     0.000336
  9 H s       :     0.006864  s :     0.006864
 10 H s       :    -0.000075  s :    -0.000075
 11 H s       :    -0.000161  s :    -0.000161
 12 H s       :    -0.000189  s :    -0.000189


                      *****************************
                      * MAYER POPULATION ANALYSIS *
                      *****************************

  NA   - Mulliken gross atomic population
  ZA   - Total nuclear charge
  QA   - Mulliken gross atomic charge
  VA   - Mayer's total valence
  BVA  - Mayer's bonded valence
  FA   - Mayer's free valence

  ATOM       NA         ZA         QA         VA         BVA        FA
  0 C      6.1268     6.0000    -0.1268     4.2211     4.2182     0.0029
  1 C      6.1968     6.0000    -0.1968     3.8702     3.0159     0.8543
  2 C      6.2564     6.0000    -0.2564     3.9818     3.9812     0.0006
  3 C      6.2387     6.0000    -0.2387     3.9400     3.9400     0.0000
  4 H      0.9143     1.0000     0.0857     0.9379     0.9365     0.0015
  5 H      0.9080     1.0000     0.0920     0.9583     0.9571     0.0012
  6 H      0.9132     1.0000     0.0868     0.9625     0.9610     0.0015
  7 H      0.9105     1.0000     0.0895     0.9549     0.9549     0.0000
  8 H      0.9046     1.0000     0.0954     0.9593     0.9593     0.0000
  9 H      0.9046     1.0000     0.0954     0.9525     0.9524     0.0001
 10 H      0.9091     1.0000     0.0909     0.9545     0.9545     0.0000
 11 H      0.9111     1.0000     0.0889     0.9641     0.9641     0.0000
 12 H      0.9059     1.0000     0.0941     0.9660     0.9660     0.0000

  Mayer bond orders larger than 0.100000
B(  0-C ,  1-C ) :   1.0914 B(  0-C ,  2-C ) :   1.1125 B(  0-C ,  3-C ) :   1.0828 
B(  0-C ,  4-H ) :   0.9086 B(  1-C ,  5-H ) :   0.9432 B(  1-C ,  6-H ) :   0.9486 
B(  2-C ,  7-H ) :   0.9534 B(  2-C ,  8-H ) :   0.9515 B(  2-C ,  9-H ) :   0.9517 
B(  3-C , 10-H ) :   0.9573 B(  3-C , 11-H ) :   0.9627 B(  3-C , 12-H ) :   0.9572 


-------
TIMINGS
-------

Total SCF time: 0 days 0 hours 11 min 59 sec 

Total time                  ....     719.103 sec
Sum of individual times     ....     577.527 sec  ( 80.3%)

Fock matrix formation       ....     494.562 sec  ( 68.8%)
  XC integration            ....     257.786 sec  ( 52.1% of F)
    Basis function eval.    ....       0.791 sec  (  0.3% of XC)
    Density eval.           ....       0.564 sec  (  0.2% of XC)
    XC-Functional eval.     ....       0.345 sec  (  0.1% of XC)
    XC-Potential eval.      ....       0.825 sec  (  0.3% of XC)
Diagonalization             ....      15.007 sec  (  2.1%)
Density matrix formation    ....      35.840 sec  (  5.0%)
Population analysis         ....      18.208 sec  (  2.5%)
Initial guess               ....       0.800 sec  (  0.1%)
Orbital Transformation      ....       0.000 sec  (  0.0%)
Orbital Orthonormalization  ....       0.000 sec  (  0.0%)
DIIS solution               ....       8.699 sec  (  1.2%)
Grid generation             ....       4.411 sec  (  0.6%)


-------------------------------------------------------------------------------
                          DFT DISPERSION CORRECTION                            
                                                                               
                              DFTD3 V3.1  Rev 1                                
                          USING Becke-Johnson damping                          
-------------------------------------------------------------------------------
The B3LYP functional is recognized
Active option DFTDOPT                   ...         4   

molecular C6(AA) [au] = 1132.426098 


            DFT-D V3
 parameters
 s6 scaling factor         :     1.0000 
 a1 scaling factor         :     0.3981 
 s8 scaling factor         :     1.9889 
 a2 scaling factor         :     4.4211 
 ad hoc parameters k1-k3   :    16.0000     1.3333    -4.0000 

 Edisp/kcal,au: -9.205321498351  -0.014669612009 
 E6   /kcal   :  -4.564577557 
 E8   /kcal   :  -4.640743942 
 % E8         :  50.413708445 

-------------------------   ----------------
Dispersion correction           -0.014669612
-------------------------   ----------------


-------------------------   --------------------
FINAL SINGLE POINT ENERGY      -157.519497797757
-------------------------   --------------------

------------------------------------------------------------------------------
                         ORCA SCF GRADIENT CALCULATION
------------------------------------------------------------------------------

Gradient of the Kohn-Sham DFT energy:
Kohn-Sham wavefunction type      ... UKS
Hartree-Fock exchange scaling    ...    0.200
Number of operators              ...    2
Number of atoms                  ...   13
Basis set dimensions             ...   74
Integral neglect threshold       ... 1.0e-12
Integral primitive cutoff        ... 1.0e-14

Nuclear repulsion gradient       ... done
One Electron Gradient            ... done
Pre-screening matrix             ... done
Starting the two electron gradient:
Two electron gradient done
Exchange-correlation gradient    ... done
Dispersion correction            ... done

------------------
CARTESIAN GRADIENT
------------------

   1   C   :   -0.013392445   -0.002074319   -0.022080700
   2   C   :    0.018611409    0.010811694    0.039246038
   3   C   :    0.010326578    0.031771789   -0.007299379
   4   C   :   -0.015670035   -0.030602640   -0.001097427
   5   H   :   -0.002131417    0.002857885    0.004528036
   6   H   :   -0.006981091    0.001512290   -0.015366906
   7   H   :   -0.014306648    0.000221946   -0.014345176
   8   H   :    0.007017901   -0.004374960    0.003652905
   9   H   :    0.001477379   -0.004360352   -0.000613702
  10   H   :   -0.000769231   -0.004650458    0.006018839
  11   H   :    0.005232165    0.004544099    0.010916690
  12   H   :    0.010915479   -0.003612862    0.001626458
  13   H   :   -0.000330044   -0.002044111   -0.005185676

Difference to translation invariance:
           :    0.0000000000    0.0000000000   -0.0000000000

Norm of the cartesian gradient     ...    0.0790775202
RMS gradient                       ...    0.0126625373
MAX gradient                       ...    0.0392460377

-------
TIMINGS
-------

Total SCF gradient time            ...        4.002 sec

One electron gradient       ....       0.026 sec  (  0.6%)
Prescreening matrices       ....       0.024 sec  (  0.6%)
Two electron gradient       ....       1.360 sec  ( 34.0%)
XC gradient                 ....       2.378 sec  ( 59.4%)
------------------------------------------------------------------------------
                         ORCA GEOMETRY RELAXATION STEP
------------------------------------------------------------------------------

Reading the OPT-File                    .... done
Getting information on internals        .... done
Copying old internal coords+grads       .... done
Making the new internal coordinates     .... (new redundants).... done
Validating the new internal coordinates .... (new redundants).... done
Calculating the B-matrix                .... done
Calculating the G,G- and P matrices     .... done
Transforming gradient to internals      .... done
Projecting the internal gradient        .... done
Number of atoms                         ....  13
Number of internal coordinates          ....  57
Current Energy                          ....  -157.519497798 Eh
Current gradient norm                   ....     0.079077520 Eh/bohr
Maximum allowed component of the step   ....  0.300
Current trust radius                    ....  0.300
Evaluating the initial hessian          ....  (Almloef) done
Projecting the Hessian                  .... done
Forming the augmented Hessian           .... done
Diagonalizing the augmented Hessian     .... done
Last element of RFO vector              ....  0.931825398
Lowest eigenvalues of augmented Hessian:
 -0.019381833  0.011625882  0.013205011  0.013837422  0.070393978
Length of the computed step             ....  0.389458062
Warning: the length of the step is outside the trust region - taking restricted step instead
The input lambda is                     ....    -0.019382
   iter:   1  x=   -0.035725  g=    3.773874 f(x)=     0.061678
   iter:   2  x=   -0.045295  g=    1.904055 f(x)=     0.018222
   iter:   3  x=   -0.047049  g=    1.420830 f(x)=     0.002492
   iter:   4  x=   -0.047093  g=    1.353345 f(x)=     0.000060
   iter:   5  x=   -0.047093  g=    1.351706 f(x)=     0.000000
   iter:   6  x=   -0.047093  g=    1.351705 f(x)=     0.000000
The output lambda is                    ....    -0.047093 (6 iterations)
The final length of the internal step   ....  0.300000000
Converting the step to cartesian space:
 Initial RMS(Int)=    0.0397359707
Transforming coordinates:
 Iter   0:  RMS(Cart)=    0.0767049532 RMS(Int)=    0.0400599643
 Iter   1:  RMS(Cart)=    0.0035205687 RMS(Int)=    0.0028404952
 Iter   2:  RMS(Cart)=    0.0002673419 RMS(Int)=    0.0002488981
 Iter   3:  RMS(Cart)=    0.0000355946 RMS(Int)=    0.0000290268
 Iter   4:  RMS(Cart)=    0.0000034933 RMS(Int)=    0.0000028634
 Iter   5:  RMS(Cart)=    0.0000004410 RMS(Int)=    0.0000003779
 Iter   6:  RMS(Cart)=    0.0000000483 RMS(Int)=    0.0000000371
done
Storing new coordinates                 .... done

                                .--------------------.
          ----------------------|Geometry convergence|-------------------------
          Item                value                   Tolerance       Converged
          ---------------------------------------------------------------------
          RMS gradient        0.0085823134            0.0001000000      NO
          MAX gradient        0.0315643211            0.0003000000      NO
          RMS step            0.0397359707            0.0020000000      NO
          MAX step            0.1058167260            0.0040000000      NO
          ........................................................
          Max(Bonds)      0.0368      Max(Angles)    5.43
          Max(Dihed)        6.06      Max(Improp)    0.00
          ---------------------------------------------------------------------

The optimization has not yet converged - more geometry cycles are needed


    ---------------------------------------------------------------------------
                         Redundant Internal Coordinates
                            (Angstroem and degrees)

        Definition                    Value    dE/dq     Step     New-Value
    ----------------------------------------------------------------------------
     1. B(C   1,C   0)                1.5164 -0.009300  0.0112    1.5276   
     2. B(C   2,C   0)                1.5030 -0.024626  0.0283    1.5313   
     3. B(C   3,C   0)                1.5069 -0.031564  0.0368    1.5437   
     4. B(H   4,C   0)                1.1200  0.005050 -0.0072    1.1128   
     5. B(H   5,C   1)                1.1179  0.008905 -0.0127    1.1052   
     6. B(H   6,C   1)                1.1123  0.004793 -0.0067    1.1056   
     7. B(H   7,C   2)                1.1191  0.006598 -0.0094    1.1097   
     8. B(H   8,C   2)                1.1067  0.000896 -0.0012    1.1055   
     9. B(H   9,C   2)                1.1082  0.001826 -0.0025    1.1057   
    10. B(H  10,C   3)                1.1197  0.009067 -0.0130    1.1067   
    11. B(H  11,C   3)                1.1196  0.009028 -0.0129    1.1067   
    12. B(H  12,C   3)                1.1101  0.004380 -0.0061    1.1040   
    13. A(C   1,C   0,H   4)          108.88  0.002610   -0.66    108.22   
    14. A(C   2,C   0,H   4)          106.53 -0.000463   -0.49    106.03   
    15. A(C   1,C   0,C   2)          109.66 -0.000438    0.41    110.07   
    16. A(C   1,C   0,C   3)          110.62 -0.006357    1.59    112.22   
    17. A(C   2,C   0,C   3)          113.10  0.003928   -0.46    112.64   
    18. A(C   3,C   0,H   4)          107.87  0.001030   -0.52    107.35   
    19. A(H   5,C   1,H   6)          108.01  0.004889    2.57    110.58   
    20. A(C   0,C   1,H   6)          109.25 -0.024596    5.43    114.68   
    21. A(C   0,C   1,H   5)          112.03 -0.015534    3.96    115.99   
    22. A(H   7,C   2,H   9)          105.15  0.001460    0.37    105.52   
    23. A(C   0,C   2,H   9)          113.36  0.002490   -0.66    112.69   
    24. A(H   7,C   2,H   8)          105.80  0.000974    0.43    106.23   
    25. A(C   0,C   2,H   8)          113.63  0.004225   -0.93    112.69   
    26. A(H   8,C   2,H   9)          111.36  0.001125   -1.12    110.24   
    27. A(C   0,C   2,H   7)          106.76 -0.011356    2.31    109.08   
    28. A(H  11,C   3,H  12)          107.73  0.004272   -0.48    107.25   
    29. A(H  10,C   3,H  12)          111.78  0.005733   -1.76    110.02   
    30. A(C   0,C   3,H  12)          113.17  0.002103   -0.62    112.55   
    31. A(H  10,C   3,H  11)          104.14  0.002672    0.36    104.50   
    32. A(C   0,C   3,H  11)          107.65 -0.011574    2.27    109.92   
    33. A(C   0,C   3,H  10)          111.79 -0.003641    0.47    112.26   
    34. D(H   6,C   1,C   0,C   3)   -140.88  0.010753   -6.06   -146.94   
    35. D(H   6,C   1,C   0,H   4)    100.74  0.011659   -5.97     94.78   
    36. D(H   6,C   1,C   0,C   2)    -15.45  0.010980   -5.23    -20.68   
    37. D(H   5,C   1,C   0,H   4)   -139.62 -0.008377    3.36   -136.26   
    38. D(H   5,C   1,C   0,C   2)    104.18 -0.009056    4.10    108.28   
    39. D(H   5,C   1,C   0,C   3)    -21.25 -0.009283    3.27    -17.98   
    40. D(H   7,C   2,C   0,C   1)     46.48  0.001844   -0.01     46.47   
    41. D(H   9,C   2,C   0,C   1)    161.78 -0.002086    1.52    163.30   
    42. D(H   8,C   2,C   0,H   4)    172.56  0.002946   -0.65    171.91   
    43. D(H   8,C   2,C   0,C   1)    -69.77  0.005548   -1.49    -71.26   
    44. D(H   7,C   2,C   0,H   4)    -71.20 -0.000757    0.83    -70.37   
    45. D(H   7,C   2,C   0,C   3)    170.47 -0.003949    2.05    172.52   
    46. D(H   9,C   2,C   0,C   3)    -74.23 -0.007879    3.58    -70.65   
    47. D(H   9,C   2,C   0,H   4)     44.10 -0.004687    2.36     46.47   
    48. D(H   8,C   2,C   0,C   3)     54.23 -0.000246    0.57     54.79   
    49. D(H  12,C   3,C   0,H   4)   -134.17 -0.002454    0.55   -133.62   
    50. D(H  12,C   3,C   0,C   1)    106.84 -0.002582    0.75    107.59   
    51. D(H  11,C   3,C   0,H   4)    106.90 -0.001328    0.01    106.91   
    52. D(H  11,C   3,C   0,C   2)   -135.56  0.001071   -1.20   -136.76   
    53. D(H  11,C   3,C   0,C   1)    -12.09 -0.001456    0.21    -11.88   
    54. D(H  10,C   3,C   0,H   4)     -6.89  0.004059   -1.97     -8.86   
    55. D(H  12,C   3,C   0,C   2)    -16.62 -0.000055   -0.66    -17.29   
    56. D(H  10,C   3,C   0,C   2)    110.66  0.006458   -3.19    107.47   
    57. D(H  10,C   3,C   0,C   1)   -125.88  0.003931   -1.77   -127.65   
    ----------------------------------------------------------------------------

Time needed for optimization step       :     6.06 sec

         *************************************************************
         *                GEOMETRY OPTIMIZATION CYCLE   2            *
         *************************************************************
---------------------------------
CARTESIAN COORDINATES (ANGSTROEM)
---------------------------------
  C     -0.059910    0.044837    0.360818
  C      1.283071   -0.642124    0.119690
  C     -1.201654   -0.840679   -0.146327
  C     -0.102718    1.468261   -0.234951
  H     -0.209740    0.140260    1.459341
  H      1.911072   -0.200291   -0.675264
  H      1.216917   -1.737324   -0.016593
  H     -1.039411   -1.879812    0.207665
  H     -1.242432   -0.892961   -1.249818
  H     -2.185836   -0.540500    0.258444
  H     -0.422021    2.223836    0.508044
  H      0.916086    1.784009   -0.529978
  H     -0.738643    1.531353   -1.135217

----------------------------
CARTESIAN COORDINATES (A.U.)
----------------------------
  NO LB      ZA    FRAG     MASS         X           Y           Z
   0 C     6.0000    0    12.011   -0.113213    0.084730    0.681848
   1 C     6.0000    0    12.011    2.424652   -1.213438    0.226182
   2 C     6.0000    0    12.011   -2.270796   -1.588654   -0.276518
   3 C     6.0000    0    12.011   -0.194108    2.774612   -0.443994
   4 H     1.0000    0     1.008   -0.396352    0.265053    2.757756
   5 H     1.0000    0     1.008    3.611403   -0.378496   -1.276063
   6 H     1.0000    0     1.008    2.299641   -3.283067   -0.031357
   7 H     1.0000    0     1.008   -1.964203   -3.552329    0.392431
   8 H     1.0000    0     1.008   -2.347857   -1.687452   -2.361813
   9 H     1.0000    0     1.008   -4.130631   -1.021397    0.488389
  10 H     1.0000    0     1.008   -0.797504    4.202441    0.960064
  11 H     1.0000    0     1.008    1.731152    3.371289   -1.001513
  12 H     1.0000    0     1.008   -1.395833    2.893837   -2.145250

--------------------------------
INTERNAL COORDINATES (ANGSTROEM)
--------------------------------
 C      0   0   0     0.000000000000     0.00000000     0.00000000
 C      1   0   0     1.527630246500     0.00000000     0.00000000
 C      1   2   0     1.531311325256   110.06929224     0.00000000
 C      1   2   3     1.543668010083   112.21741589   233.72383155
 H      1   2   3     1.112792943569   108.22508557   115.45528393
 H      2   1   3     1.105238939742   115.67623742   108.45176793
 H      2   1   3     1.105627833624   114.34969438   339.15936654
 H      3   1   2     1.109697686238   109.07734095    46.46558384
 H      3   1   2     1.105481186469   112.67100355   288.75501680
 H      3   1   2     1.105695060558   112.67031027   163.29224217
 H      4   1   2     1.106747329256   112.23607188   232.34318640
 H      4   1   2     1.106661132386   109.90435118   348.13041492
 H      4   1   2     1.104020212433   112.54349993   107.59100676

---------------------------
INTERNAL COORDINATES (A.U.)
---------------------------
 C      0   0   0     0.000000000000     0.00000000     0.00000000
 C      1   0   0     2.886802799780     0.00000000     0.00000000
 C      1   2   0     2.893759030505   110.06929224     0.00000000
 C      1   2   3     2.917109780753   112.21741589   233.72383155
 H      1   2   3     2.102873907105   108.22508557   115.45528393
 H      2   1   3     2.088598908657   115.67623742   108.45176793
 H      2   1   3     2.089333811591   114.34969438   339.15936654
 H      3   1   2     2.097024718437   109.07734095    46.46558384
 H      3   1   2     2.089056688628   112.67100355   288.75501680
 H      3   1   2     2.089460852085   112.67031027   163.29224217
 H      4   1   2     2.091449351742   112.23607188   232.34318640
 H      4   1   2     2.091286463264   109.90435118   348.13041492
 H      4   1   2     2.086295847813   112.54349993   107.59100676


Diagonalization of the overlap matrix:
Smallest eigenvalue                        ... 2.137e-03
Time for diagonalization                   ...    0.001 sec
Threshold for overlap eigenvalues          ... 1.000e-08
Number of eigenvalues below threshold      ... 0
Time for construction of square roots      ...    7.970 sec
Total time needed                          ...    7.971 sec

-------------------
DFT GRID GENERATION
-------------------

General Integration Accuracy     IntAcc      ...  4.340
Radial Grid Type                 RadialGrid  ... Gauss-Chebyshev
Angular Grid (max. acc.)         AngularGrid ... Lebedev-110
Angular grid pruning method      GridPruning ... 3 (G Style)
Weight generation scheme         WeightScheme... Becke
Basis function cutoff            BFCut       ...    1.0000e-12
Integration weight cutoff        WCut        ...    1.0000e-14
Grids for H and He will be reduced by one unit

# of grid points (after initial pruning)     ...  13770 (   0.0 sec)
# of grid points (after weights+screening)   ...  12908 (   0.0 sec)
nearest neighbour list constructed           ...    0.0 sec
Grid point re-assignment to atoms done       ...    0.0 sec
Grid point division into batches done        ...    0.0 sec
Reduced shell lists constructed in    0.1 sec

Total number of grid points                  ...    12908
Total number of batches                      ...      209
Average number of points per batch           ...       61
Average number of grid points per atom       ...      993
Average number of shells per batch           ...    37.30 (88.81%)
Average number of basis functions per batch  ...    66.57 (89.95%)
Average number of large shells per batch     ...    32.54 (87.25%)
Average number of large basis fcns per batch ...    57.48 (86.34%)
Maximum spatial batch extension              ...  20.18, 18.84, 23.11 au
Average spatial batch extension              ...   4.14,  4.06,  3.95 au

Time for grid setup =    1.328 sec

--------------
SCF ITERATIONS
--------------
ITER       Energy         Delta-E        Max-DP      RMS-DP      [F,P]     Damp
               ***  Starting incremental Fock matrix formation  ***
  0   -157.5136060831   0.000000000000 0.00370242  0.00017205  0.0135196 0.7000
  1   -157.5143823094  -0.000776226297 0.00352753  0.00015821  0.0100936 0.7000
                               ***Turning on DIIS***
  2   -157.5149864296  -0.000604120161 0.00934999  0.00042088  0.0075657 0.0000
  3   -157.5165299757  -0.001543546114 0.00231734  0.00009054  0.0017127 0.0000
  4   -157.5165746847  -0.000044708999 0.00189737  0.00007704  0.0009028 0.0000
  5   -157.5165901241  -0.000015439465 0.00046789  0.00002075  0.0004043 0.0000
  6   -157.5165920197  -0.000001895545 0.00024064  0.00000959  0.0001985 0.0000
  7   -157.5165923553  -0.000000335645 0.00004375  0.00000222  0.0000499 0.0000
  8   -157.5165923726  -0.000000017238 0.00001569  0.00000093  0.0000265 0.0000
  9   -157.5165923772  -0.000000004657 0.00000467  0.00000025  0.0000059 0.0000
 10   -157.5165923776  -0.000000000354 0.00000205  0.00000010  0.0000013 0.0000
 11   -157.5165923776  -0.000000000054 0.00000065  0.00000003  0.0000007 0.0000
                 **** Energy Check signals convergence ****

 Fermi smearing  (ALPHA): E(HOMO(Eh)) = -0.327808 MUE = -0.080233 gap=   7.642 eV
 Fermi smearing   (BETA): E(HOMO(Eh)) = -0.321863 MUE = -0.189918 gap=   7.141 eV

N_FOD(alpha) =  0.000000
 N_FOD(beta) =  0.000000
       N_FOD =  0.000000

               *****************************************************
               *                     SUCCESS                       *
               *           SCF CONVERGED AFTER  12 CYCLES          *
               *****************************************************

Setting up the final grid:

General Integration Accuracy     IntAcc      ...  4.670
Radial Grid Type                 RadialGrid  ... Gauss-Chebyshev
Angular Grid (max. acc.)         AngularGrid ... Lebedev-302
Angular grid pruning method      GridPruning ... 3 (G Style)
Weight generation scheme         WeightScheme... Becke
Basis function cutoff            BFCut       ...    1.0000e-12
Integration weight cutoff        WCut        ...    1.0000e-14
Grids for H and He will be reduced by one unit

# of grid points (after initial pruning)     ...  55394 (   0.0 sec)
# of grid points (after weights+screening)   ...  51250 (   0.1 sec)
nearest neighbour list constructed           ...    0.0 sec
Grid point re-assignment to atoms done       ...    0.0 sec
Grid point division into batches done        ...    0.1 sec
Reduced shell lists constructed in    0.3 sec

Total number of grid points                  ...    51250
Total number of batches                      ...      807
Average number of points per batch           ...       63
Average number of grid points per atom       ...     3942
Average number of shells per batch           ...    34.86 (83.00%)
Average number of basis functions per batch  ...    61.94 (83.70%)
Average number of large shells per batch     ...    29.83 (85.57%)
Average number of large basis fcns per batch ...    52.45 (84.69%)
Maximum spatial batch extension              ...  18.03, 17.18, 18.82 au
Average spatial batch extension              ...   2.61,  2.60,  2.60 au

Final grid set up in    3.0 sec
Final integration                            ... done (  21.4 sec)
Change in XC energy                          ...     0.000218891
Integrated number of electrons               ...    33.000001287
Previous integrated no of electrons          ...    33.004154850
Total Energy       :         -157.51637349 Eh           -4286.23843 eV
  Last Energy change         ...   -1.1511e-11  Tolerance :   1.0000e-09
  Last MAX-Density change    ...    4.7970e-07  Tolerance :   1.0000e-08
             **** THE GBW FILE WAS UPDATED (orca8.gbw) ****
             **** DENSITY FILE WAS UPDATED (orca8.scfp) ****
             **** ENERGY FILE WAS UPDATED (orca8.en.tmp) ****
             **** THE GBW FILE WAS UPDATED (orca8.gbw) ****
             **** DENSITY FILE WAS UPDATED (orca8.scfp) ****
Total SCF time: 0 days 0 hours 11 min 9 sec 


-------------------------------------------------------------------------------
                          DFT DISPERSION CORRECTION                            
                                                                               
                              DFTD3 V3.1  Rev 1                                
                          USING Becke-Johnson damping                          
-------------------------------------------------------------------------------
-------------------------   ----------------
Dispersion correction           -0.014409555
-------------------------   ----------------


-------------------------   --------------------
FINAL SINGLE POINT ENERGY      -157.530783042099
-------------------------   --------------------

------------------------------------------------------------------------------
                         ORCA SCF GRADIENT CALCULATION
------------------------------------------------------------------------------

Gradient of the Kohn-Sham DFT energy:
Kohn-Sham wavefunction type      ... UKS
Hartree-Fock exchange scaling    ...    0.200
Number of operators              ...    2
Number of atoms                  ...   13
Basis set dimensions             ...   74
Integral neglect threshold       ... 1.0e-12
Integral primitive cutoff        ... 1.0e-14

Nuclear repulsion gradient       ... done
One Electron Gradient            ... done
Pre-screening matrix             ... done
Starting the two electron gradient:
Two electron gradient done
Exchange-correlation gradient    ... done
Dispersion correction            ... done

------------------
CARTESIAN GRADIENT
------------------

   1   C   :   -0.010392601   -0.001002861   -0.005649442
   2   C   :    0.018427115    0.002324438    0.024613913
   3   C   :    0.002043714    0.013924908   -0.004963534
   4   C   :   -0.009562986   -0.005869763   -0.003510965
   5   H   :   -0.001728342    0.001898879    0.000944103
   6   H   :   -0.004786632   -0.002736833   -0.008105115
   7   H   :   -0.005342041   -0.000312949   -0.010959966
   8   H   :    0.002036943   -0.001348015    0.000566455
   9   H   :    0.000684749   -0.003172413    0.000116179
  10   H   :    0.000023579   -0.004415277    0.003775088
  11   H   :    0.005599479    0.001569362    0.002931347
  12   H   :    0.001619733   -0.000432263    0.001432138
  13   H   :    0.001377292   -0.000427213   -0.001190199

Difference to translation invariance:
           :    0.0000000000   -0.0000000000   -0.0000000000

Norm of the cartesian gradient     ...    0.0425013589
RMS gradient                       ...    0.0068056641
MAX gradient                       ...    0.0246139127

-------
TIMINGS
-------

Total SCF gradient time            ...        4.574 sec

One electron gradient       ....       0.027 sec  (  0.6%)
Prescreening matrices       ....       0.025 sec  (  0.5%)
Two electron gradient       ....       1.306 sec  ( 28.6%)
XC gradient                 ....       2.369 sec  ( 51.8%)
------------------------------------------------------------------------------
                         ORCA GEOMETRY RELAXATION STEP
------------------------------------------------------------------------------

Reading the OPT-File                    .... done
Getting information on internals        .... done
Copying old internal coords+grads       .... done
Making the new internal coordinates     .... (new redundants).... done
Validating the new internal coordinates .... (new redundants).... done
Calculating the B-matrix                .... done
Calculating the G,G- and P matrices     .... done
Transforming gradient to internals      .... done
Projecting the internal gradient        .... done
Number of atoms                         ....  13
Number of internal coordinates          ....  57
Current Energy                          ....  -157.530783042 Eh
Current gradient norm                   ....     0.042501359 Eh/bohr
Maximum allowed component of the step   ....  0.300
Current trust radius                    ....  0.300
Updating the Hessian (BFGS)             .... done
Forming the augmented Hessian           .... done
Diagonalizing the augmented Hessian     .... done
Last element of RFO vector              ....  0.941012930
Lowest eigenvalues of augmented Hessian:
 -0.007646653  0.011588091  0.013212626  0.013851176  0.063360657
Length of the computed step             ....  0.359581248
Warning: the length of the step is outside the trust region - taking restricted step instead
The input lambda is                     ....    -0.007647
   iter:   1  x=   -0.014356  g=    5.857534 f(x)=     0.039299
   iter:   2  x=   -0.017011  g=    3.466391 f(x)=     0.009204
   iter:   3  x=   -0.017260  g=    2.939263 f(x)=     0.000732
   iter:   4  x=   -0.017262  g=    2.896666 f(x)=     0.000005
   iter:   5  x=   -0.017262  g=    2.896356 f(x)=     0.000000
   iter:   6  x=   -0.017262  g=    2.896356 f(x)=    -0.000000
The output lambda is                    ....    -0.017262 (6 iterations)
The final length of the internal step   ....  0.300000000
Converting the step to cartesian space:
 Initial RMS(Int)=    0.0397359707
Transforming coordinates:
 Iter   0:  RMS(Cart)=    0.0522269317 RMS(Int)=    0.0401550708
 Iter   1:  RMS(Cart)=    0.0028301742 RMS(Int)=    0.0022336468
 Iter   2:  RMS(Cart)=    0.0002149505 RMS(Int)=    0.0001900311
 Iter   3:  RMS(Cart)=    0.0000251919 RMS(Int)=    0.0000223051
 Iter   4:  RMS(Cart)=    0.0000027489 RMS(Int)=    0.0000021046
 Iter   5:  RMS(Cart)=    0.0000003442 RMS(Int)=    0.0000003071
 Iter   6:  RMS(Cart)=    0.0000000372 RMS(Int)=    0.0000000282
done
Storing new coordinates                 .... done

                                .--------------------.
          ----------------------|Geometry convergence|-------------------------
          Item                value                   Tolerance       Converged
          ---------------------------------------------------------------------
          Energy change      -0.0112852443            0.0000050000      NO
          RMS gradient        0.0033128744            0.0001000000      NO
          MAX gradient        0.0081310222            0.0003000000      NO
          RMS step            0.0397359707            0.0020000000      NO
          MAX step            0.1124903266            0.0040000000      NO
          ........................................................
          Max(Bonds)      0.0134      Max(Angles)    3.98
          Max(Dihed)        6.45      Max(Improp)    0.00
          ---------------------------------------------------------------------

The optimization has not yet converged - more geometry cycles are needed


    ---------------------------------------------------------------------------
                         Redundant Internal Coordinates
                            (Angstroem and degrees)

        Definition                    Value    dE/dq     Step     New-Value
    ----------------------------------------------------------------------------
     1. B(C   1,C   0)                1.5276  0.006746 -0.0131    1.5145   
     2. B(C   2,C   0)                1.5313 -0.006281  0.0134    1.5447   
     3. B(C   3,C   0)                1.5437 -0.004612  0.0106    1.5543   
     4. B(H   4,C   0)                1.1128  0.001327 -0.0034    1.1094   
     5. B(H   5,C   1)                1.1052  0.002013 -0.0052    1.1000   
     6. B(H   6,C   1)                1.1056  0.001990 -0.0049    1.1007   
     7. B(H   7,C   2)                1.1097  0.001733 -0.0045    1.1052   
     8. B(H   8,C   2)                1.1055  0.000013 -0.0001    1.1054   
     9. B(H   9,C   2)                1.1057  0.000167 -0.0005    1.1052   
    10. B(H  10,C   3)                1.1067  0.001427 -0.0038    1.1029   
    11. B(H  11,C   3)                1.1067  0.000992 -0.0028    1.1039   
    12. B(H  12,C   3)                1.1040  0.000142 -0.0005    1.1035   
    13. A(C   1,C   0,H   4)          108.23  0.001119   -0.37    107.85   
    14. A(C   2,C   0,H   4)          106.03 -0.000100   -0.06    105.97   
    15. A(C   1,C   0,C   2)          110.07 -0.001644    0.60    110.67   
    16. A(C   1,C   0,C   3)          112.22 -0.001146    0.44    112.66   
    17. A(C   2,C   0,C   3)          112.63  0.002199   -0.62    112.00   
    18. A(C   3,C   0,H   4)          107.35 -0.000340   -0.04    107.31   
    19. A(H   5,C   1,H   6)          109.96  0.000358    3.60    113.56   
    20. A(C   0,C   1,H   6)          114.35 -0.008131    3.98    118.33   
    21. A(C   0,C   1,H   5)          115.68 -0.005713    3.23    118.91   
    22. A(H   7,C   2,H   9)          105.52 -0.001074    1.02    106.55   
    23. A(C   0,C   2,H   9)          112.67  0.002488   -0.97    111.70   
    24. A(H   7,C   2,H   8)          106.23 -0.000842    0.85    107.08   
    25. A(C   0,C   2,H   8)          112.67  0.002730   -1.08    111.60   
    26. A(H   8,C   2,H   9)          110.21  0.000413   -1.16    109.05   
    27. A(C   0,C   2,H   7)          109.08 -0.004293    1.78    110.86   
    28. A(H  11,C   3,H  12)          107.25  0.000631   -0.03    107.23   
    29. A(H  10,C   3,H  12)          110.01  0.002198   -1.53    108.48   
    30. A(C   0,C   3,H  12)          112.54  0.001566   -0.80    111.74   
    31. A(H  10,C   3,H  11)          104.46 -0.001209    1.29    105.75   
    32. A(C   0,C   3,H  11)          109.90 -0.003258    1.39    111.29   
    33. A(C   0,C   3,H  10)          112.24 -0.000161   -0.05    112.19   
    34. D(H   6,C   1,C   0,C   3)   -147.12  0.006908   -6.42   -153.53   
    35. D(H   6,C   1,C   0,H   4)     94.61  0.007290   -6.40     88.22   
    36. D(H   6,C   1,C   0,C   2)    -20.84  0.007667   -6.45    -27.29   
    37. D(H   5,C   1,C   0,H   4)   -136.09 -0.005830    3.81   -132.28   
    38. D(H   5,C   1,C   0,C   2)    108.45 -0.005453    3.76    112.22   
    39. D(H   5,C   1,C   0,C   3)    -17.82 -0.006212    3.79    -14.03   
    40. D(H   7,C   2,C   0,C   1)     46.47 -0.000115    1.13     47.59   
    41. D(H   9,C   2,C   0,C   1)    163.29 -0.002715    2.96    166.25   
    42. D(H   8,C   2,C   0,H   4)    171.92  0.001642   -0.28    171.64   
    43. D(H   8,C   2,C   0,C   1)    -71.24  0.002073   -0.45    -71.69   
    44. D(H   7,C   2,C   0,H   4)    -70.37 -0.000545    1.29    -69.08   
    45. D(H   7,C   2,C   0,C   3)    172.51 -0.001252    1.72    174.23   
    46. D(H   9,C   2,C   0,C   3)    -70.66 -0.003852    3.55    -67.11   
    47. D(H   9,C   2,C   0,H   4)     46.46 -0.003145    3.12     49.58   
[...]

             **** THE GBW FILE WAS UPDATED (orca8.gbw) ****
             **** DENSITY FILE WAS UPDATED (orca8.scfp) ****
             **** ENERGY FILE WAS UPDATED (orca8.en.tmp) ****
             **** THE GBW FILE WAS UPDATED (orca8.gbw) ****
             **** DENSITY FILE WAS UPDATED (orca8.scfp) ****
----------------
ORBITAL ENERGIES
----------------
                 SPIN UP ORBITALS
  NO   OCC          E(Eh)            E(eV) 
   0   1.0000     -10.188422      -277.2411 
   1   1.0000     -10.180009      -277.0121 
   2   1.0000     -10.168397      -276.6962 
   3   1.0000     -10.168224      -276.6914 
   4   1.0000      -0.793570       -21.5941 
   5   1.0000      -0.671617       -18.2756 
   6   1.0000      -0.661347       -17.9962 
   7   1.0000      -0.548902       -14.9364 
   8   1.0000      -0.456025       -12.4091 
   9   1.0000      -0.439003       -11.9459 
  10   1.0000      -0.430515       -11.7149 
  11   1.0000      -0.382544       -10.4095 
  12   1.0000      -0.367544       -10.0014 
  13   1.0000      -0.347024        -9.4430 
  14   1.0000      -0.338270        -9.2048 
  15   1.0000      -0.332574        -9.0498 
  16   1.0000      -0.201540        -5.4842 
  17   0.0000       0.059270         1.6128 
  18   0.0000       0.105598         2.8735 
  19   0.0000       0.107305         2.9199 
  20   0.0000       0.108512         2.9528 
  21   0.0000       0.123140         3.3508 
  22   0.0000       0.129379         3.5206 
  23   0.0000       0.146891         3.9971 
  24   0.0000       0.167116         4.5475 
  25   0.0000       0.179514         4.8848 
  26   0.0000       0.208909         5.6847 
  27   0.0000       0.255627         6.9560 
  28   0.0000       0.258813         7.0427 
  29   0.0000       0.402512        10.9529 
  30   0.0000       0.424724        11.5573 
  31   0.0000       0.424951        11.5635 
  32   0.0000       0.444037        12.0829 
  33   0.0000       0.482686        13.1345 
  34   0.0000       0.496527        13.5112 
  35   0.0000       0.557550        15.1717 
  36   0.0000       0.608280        16.5521 
  37   0.0000       0.647907        17.6304 
  38   0.0000       0.654862        17.8197 
  39   0.0000       0.656810        17.8727 
  40   0.0000       0.663403        18.0521 
  41   0.0000       0.672145        18.2900 
  42   0.0000       0.693113        18.8606 
  43   0.0000       0.703610        19.1462 
  44   0.0000       0.706970        19.2376 
  45   0.0000       0.719947        19.5908 
  46   0.0000       0.730817        19.8865 
  47   0.0000       0.749490        20.3947 
  48   0.0000       0.757126        20.6024 
  49   0.0000       0.762845        20.7581 
  50   0.0000       0.875089        23.8124 
  51   0.0000       0.936315        25.4784 
  52   0.0000       1.052087        28.6287 
  53   0.0000       1.065670        28.9984 
  54   0.0000       1.396481        38.0002 
  55   0.0000       1.488926        40.5157 
  56   0.0000       1.680199        45.7205 
  57   0.0000       1.745006        47.4840 
  58   0.0000       1.766174        48.0600 
  59   0.0000       1.854194        50.4552 
  60   0.0000       1.915163        52.1142 
  61   0.0000       1.940148        52.7941 
  62   0.0000       1.954830        53.1936 
  63   0.0000       1.990023        54.1513 
  64   0.0000       2.059379        56.0386 
  65   0.0000       2.091987        56.9259 
  66   0.0000       2.145410        58.3796 
  67   0.0000       2.153718        58.6056 
  68   0.0000       2.162048        58.8323 
  69   0.0000       2.427446        66.0542 
  70   0.0000       2.442548        66.4651 
  71   0.0000       2.466062        67.1050 
  72   0.0000       2.675289        72.7983 
  73   0.0000       2.691286        73.2336 

                 SPIN DOWN ORBITALS
  NO   OCC          E(Eh)            E(eV) 
   0   1.0000     -10.189384      -277.2672 
   1   1.0000     -10.168076      -276.6874 
   2   1.0000     -10.167711      -276.6775 
   3   1.0000     -10.165507      -276.6175 
   4   1.0000      -0.786586       -21.4041 
   5   1.0000      -0.670989       -18.2585 
   6   1.0000      -0.637860       -17.3570 
   7   1.0000      -0.538785       -14.6611 
   8   1.0000      -0.450022       -12.2457 
   9   1.0000      -0.433277       -11.7901 
  10   1.0000      -0.428043       -11.6476 
  11   1.0000      -0.382025       -10.3954 
  12   1.0000      -0.364937        -9.9304 
  13   1.0000      -0.340440        -9.2638 
  14   1.0000      -0.331548        -9.0219 
  15   1.0000      -0.330118        -8.9830 
  16   0.0000      -0.045287        -1.2323 
  17   0.0000       0.061758         1.6805 
  18   0.0000       0.106990         2.9114 
  19   0.0000       0.108312         2.9473 
  20   0.0000       0.115879         3.1532 
  21   0.0000       0.126817         3.4509 
  22   0.0000       0.131481         3.5778 
  23   0.0000       0.148524         4.0415 
  24   0.0000       0.167131         4.5479 
  25   0.0000       0.180900         4.9225 
  26   0.0000       0.211885         5.7657 
  27   0.0000       0.256235         6.9725 
  28   0.0000       0.266750         7.2586 
  29   0.0000       0.404415        11.0047 
  30   0.0000       0.426152        11.5962 
  31   0.0000       0.432562        11.7706 
  32   0.0000       0.444785        12.1032 
  33   0.0000       0.501694        13.6518 
  34   0.0000       0.537599        14.6288 
  35   0.0000       0.584379        15.9018 
  36   0.0000       0.619267        16.8511 
  37   0.0000       0.649832        17.6828 
  38   0.0000       0.656735        17.8707 
  39   0.0000       0.661804        18.0086 
  40   0.0000       0.667749        18.1704 
  41   0.0000       0.682028        18.5589 
  42   0.0000       0.694051        18.8861 
  43   0.0000       0.707059        19.2401 
  44   0.0000       0.709965        19.3191 
  45   0.0000       0.719926        19.5902 
  46   0.0000       0.733625        19.9630 
  47   0.0000       0.752596        20.4792 
  48   0.0000       0.763271        20.7697 
  49   0.0000       0.769183        20.9305 
  50   0.0000       0.882863        24.0239 
  51   0.0000       0.939594        25.5677 
  52   0.0000       1.056769        28.7561 
  53   0.0000       1.069314        29.0975 
  54   0.0000       1.410512        38.3820 
  55   0.0000       1.489694        40.5366 
  56   0.0000       1.729926        47.0737 
  57   0.0000       1.747774        47.5593 
  58   0.0000       1.779067        48.4109 
  59   0.0000       1.868824        50.8533 
  60   0.0000       1.927272        52.4437 
  61   0.0000       1.953743        53.1640 
  62   0.0000       1.979470        53.8641 
  63   0.0000       2.013023        54.7772 
  64   0.0000       2.084162        56.7129 
  65   0.0000       2.101170        57.1757 
  66   0.0000       2.146266        58.4029 
  67   0.0000       2.159360        58.7592 
  68   0.0000       2.166978        58.9665 
  69   0.0000       2.437160        66.3185 
  70   0.0000       2.453354        66.7592 
  71   0.0000       2.469221        67.1909 
  72   0.0000       2.682025        72.9816 
  73   0.0000       2.692541        73.2678 

                    ********************************
                    * MULLIKEN POPULATION ANALYSIS *
                    ********************************

------------------------------------------
FOD BASED MULLIKEN REDUCED ORBITAL CHARGES
------------------------------------------
  0 C s       :    -0.000000  s :    -0.000000
      pz      :     0.000000  p :     0.000000
      px      :     0.000000
      py      :     0.000000
      dz2     :     0.000000  d :     0.000000
      dxz     :     0.000000
      dyz     :     0.000000
      dx2y2   :     0.000000
      dxy     :     0.000000
  1 C s       :    -0.000000  s :    -0.000000
      pz      :     0.000000  p :     0.000000
      px      :     0.000000
      py      :     0.000000
      dz2     :     0.000000  d :     0.000000
      dxz     :     0.000000
      dyz     :     0.000000
      dx2y2   :     0.000000
      dxy     :     0.000000
  2 C s       :    -0.000000  s :    -0.000000
      pz      :     0.000000  p :     0.000000
      px      :     0.000000
      py      :     0.000000
      dz2     :     0.000000  d :     0.000000
      dxz     :     0.000000
      dyz     :     0.000000
      dx2y2   :     0.000000
      dxy     :     0.000000
  3 C s       :    -0.000000  s :    -0.000000
      pz      :     0.000000  p :     0.000000
      px      :     0.000000
      py      :     0.000000
      dz2     :     0.000000  d :     0.000000
      dxz     :     0.000000
      dyz     :     0.000000
      dx2y2   :     0.000000
      dxy     :     0.000000
  4 H s       :     0.000000  s :     0.000000
  5 H s       :     0.000000  s :     0.000000
  6 H s       :     0.000000  s :     0.000000
  7 H s       :     0.000000  s :     0.000000
  8 H s       :     0.000000  s :     0.000000
  9 H s       :     0.000000  s :     0.000000
 10 H s       :     0.000000  s :     0.000000
 11 H s       :     0.000000  s :     0.000000
 12 H s       :     0.000000  s :     0.000000


                     *******************************
                     * LOEWDIN POPULATION ANALYSIS *
                     *******************************

-------------------------------------------
LOEWDIN ATOMIC CHARGES AND SPIN POPULATIONS
-------------------------------------------
   0 C :   -0.160210   -0.013538
   1 C :   -0.224336    0.979401
   2 C :   -0.307341    0.017432
   3 C :   -0.309331    0.011398
   4 H :    0.117120    0.053350
   5 H :    0.112074   -0.025724
   6 H :    0.111591   -0.025562
   7 H :    0.110096   -0.000425
   8 H :    0.110548    0.001317
   9 H :    0.108830    0.001348
  10 H :    0.109507    0.000176
  11 H :    0.110475   -0.000385
  12 H :    0.110976    0.001213

----------------------------------------------------
LOEWDIN REDUCED ORBITAL CHARGES AND SPIN POPULATIONS
----------------------------------------------------
CHARGE
  0 C s       :     2.876070  s :     2.876070
      pz      :     1.063525  p :     3.172387
      px      :     1.056417
      py      :     1.052445
      dz2     :     0.032438  d :     0.111753
      dxz     :     0.013550
      dyz     :     0.013550
      dx2y2   :     0.024840
      dxy     :     0.027376
  1 C s       :     3.017414  s :     3.017414
      pz      :     1.015178  p :     3.149939
      px      :     1.053434
      py      :     1.081328
      dz2     :     0.006998  d :     0.056984
      dxz     :     0.006305
      dyz     :     0.003321
      dx2y2   :     0.021849
      dxy     :     0.018510
  2 C s       :     2.958384  s :     2.958384
      pz      :     1.114789  p :     3.276303
      px      :     1.067788
      py      :     1.093726
      dz2     :     0.020688  d :     0.072654
      dxz     :     0.010392
      dyz     :     0.008789
      dx2y2   :     0.017820
      dxy     :     0.014965
  3 C s       :     2.957581  s :     2.957581
      pz      :     1.111895  p :     3.279103
      px      :     1.107618
      py      :     1.059589
      dz2     :     0.023503  d :     0.072647
      dxz     :     0.006426
      dyz     :     0.009526
      dx2y2   :     0.011745
      dxy     :     0.021447
  4 H s       :     0.882880  s :     0.882880
  5 H s       :     0.887926  s :     0.887926
  6 H s       :     0.888409  s :     0.888409
  7 H s       :     0.889904  s :     0.889904
  8 H s       :     0.889452  s :     0.889452
  9 H s       :     0.891170  s :     0.891170
 10 H s       :     0.890493  s :     0.890493
 11 H s       :     0.889525  s :     0.889525
 12 H s       :     0.889024  s :     0.889024

SPIN
  0 C s       :    -0.004849  s :    -0.004849
      pz      :    -0.007963  p :    -0.026154
      px      :    -0.012498
      py      :    -0.005693
      dz2     :     0.009210  d :     0.017465
      dxz     :     0.004175
      dyz     :     0.002574
      dx2y2   :     0.000892
      dxy     :     0.000613
  1 C s       :     0.039681  s :     0.039681
      pz      :     0.807085  p :     0.943581
      px      :     0.115607
      py      :     0.020889
      dz2     :    -0.001620  d :    -0.003862
      dxz     :    -0.000826
      dyz     :    -0.000046
      dx2y2   :    -0.000683
      dxy     :    -0.000687
  2 C s       :     0.006071  s :     0.006071
      pz      :     0.000693  p :     0.011453
      px      :     0.006270
      py      :     0.004490
      dz2     :    -0.000002  d :    -0.000092
      dxz     :    -0.000147
      dyz     :     0.000139
      dx2y2   :    -0.000092
      dxy     :     0.000010
  3 C s       :     0.003737  s :     0.003737
      pz      :     0.000432  p :     0.007820
      px      :     0.000758
      py      :     0.006629
      dz2     :     0.000038  d :    -0.000158
      dxz     :     0.000046
      dyz     :    -0.000120
      dx2y2   :    -0.000036
      dxy     :    -0.000086
  4 H s       :     0.053350  s :     0.053350
  5 H s       :    -0.025724  s :    -0.025724
  6 H s       :    -0.025562  s :    -0.025562
  7 H s       :    -0.000425  s :    -0.000425
  8 H s       :     0.001317  s :     0.001317
  9 H s       :     0.001348  s :     0.001348
 10 H s       :     0.000176  s :     0.000176
 11 H s       :    -0.000385  s :    -0.000385
 12 H s       :     0.001213  s :     0.001213


                      *****************************
                      * MAYER POPULATION ANALYSIS *
                      *****************************

  NA   - Mulliken gross atomic population
  ZA   - Total nuclear charge
  QA   - Mulliken gross atomic charge
  VA   - Mayer's total valence
  BVA  - Mayer's bonded valence
  FA   - Mayer's free valence

  ATOM       NA         ZA         QA         VA         BVA        FA
  0 C      6.0951     6.0000    -0.0951     4.1886     4.1856     0.0030
  1 C      6.2416     6.0000    -0.2416     3.8831     2.9983     0.8848
  2 C      6.2382     6.0000    -0.2382     3.9551     3.9549     0.0002
  3 C      6.2484     6.0000    -0.2484     3.9581     3.9580     0.0001
  4 H      0.9175     1.0000     0.0825     0.9339     0.9303     0.0036
  5 H      0.8992     1.0000     0.1008     0.9545     0.9517     0.0028
  6 H      0.8985     1.0000     0.1015     0.9538     0.9510     0.0028
  7 H      0.9101     1.0000     0.0899     0.9558     0.9558     0.0000
  8 H      0.9099     1.0000     0.0901     0.9626     0.9625     0.0000
  9 H      0.9142     1.0000     0.0858     0.9580     0.9580     0.0000
 10 H      0.9120     1.0000     0.0880     0.9576     0.9576     0.0000
 11 H      0.9068     1.0000     0.0932     0.9542     0.9542     0.0000
 12 H      0.9084     1.0000     0.0916     0.9618     0.9617     0.0000

  Mayer bond orders larger than 0.100000
B(  0-C ,  1-C ) :   1.0786 B(  0-C ,  2-C ) :   1.0899 B(  0-C ,  3-C ) :   1.0914 
B(  0-C ,  4-H ) :   0.8985 B(  1-C ,  5-H ) :   0.9422 B(  1-C ,  6-H ) :   0.9413 
B(  2-C ,  7-H ) :   0.9569 B(  2-C ,  8-H ) :   0.9596 B(  2-C ,  9-H ) :   0.9570 
B(  3-C , 10-H ) :   0.9582 B(  3-C , 11-H ) :   0.9571 B(  3-C , 12-H ) :   0.9588 


-------
TIMINGS
-------

Total SCF time: 0 days 0 hours 0 min 50 sec 

Total time                  ....      50.441 sec
Sum of individual times     ....      40.571 sec  ( 80.4%)

Fock matrix formation       ....      32.134 sec  ( 63.7%)
  XC integration            ....      18.146 sec  ( 56.5% of F)
    Basis function eval.    ....       0.403 sec  (  2.2% of XC)
    Density eval.           ....       0.274 sec  (  1.5% of XC)
    XC-Functional eval.     ....       0.167 sec  (  0.9% of XC)
    XC-Potential eval.      ....       0.433 sec  (  2.4% of XC)
Diagonalization             ....       0.023 sec  (  0.0%)
Density matrix formation    ....       2.992 sec  (  5.9%)
Population analysis         ....       1.121 sec  (  2.2%)
Initial guess               ....       0.003 sec  (  0.0%)
Orbital Transformation      ....       0.000 sec  (  0.0%)
Orbital Orthonormalization  ....       0.001 sec  (  0.0%)
DIIS solution               ....       0.324 sec  (  0.6%)
Grid generation             ....       3.973 sec  (  7.9%)


-------------------------------------------------------------------------------
                          DFT DISPERSION CORRECTION                            
                                                                               
                              DFTD3 V3.1  Rev 1                                
                          USING Becke-Johnson damping                          
-------------------------------------------------------------------------------
The B3LYP functional is recognized
Active option DFTDOPT                   ...         4   

molecular C6(AA) [au] = 1132.643591 


            DFT-D V3
 parameters
 s6 scaling factor         :     1.0000 
 a1 scaling factor         :     0.3981 
 s8 scaling factor         :     1.9889 
 a2 scaling factor         :     4.4211 
 ad hoc parameters k1-k3   :    16.0000     1.3333    -4.0000 

 Edisp/kcal,au: -9.020084690064  -0.014374418396 
 E6   /kcal   :  -4.465145681 
 E8   /kcal   :  -4.554939009 
 % E8         :  50.497741050 

-------------------------   ----------------
Dispersion correction           -0.014374418
-------------------------   ----------------


-------------------------   --------------------
FINAL SINGLE POINT ENERGY      -157.545303242995
-------------------------   --------------------

                                *** OPTIMIZATION RUN DONE ***

                            ***************************************
                            *     ORCA property calculations      *
                            ***************************************

                                    ---------------------
                                    Active property flags
                                    ---------------------
   (+) Dipole Moment


------------------------------------------------------------------------------
                       ORCA ELECTRIC PROPERTIES CALCULATION
------------------------------------------------------------------------------

Dipole Moment Calculation                       ... on
Quadrupole Moment Calculation                   ... off
Polarizability Calculation                      ... off
GBWName                                         ... orca8.gbw
Electron density file                           ... orca8.scfp
The origin for moment calculation is the CENTER OF MASS  = (-0.121522, -0.009968 -0.125353)

-------------
DIPOLE MOMENT
-------------
                                X             Y             Z
Electronic contribution:      1.02660      -0.51102       0.31416
Nuclear contribution   :     -1.06430       0.54016      -0.21691
                        -----------------------------------------
Total Dipole Moment    :     -0.03770       0.02914       0.09725
                        -----------------------------------------
Magnitude (a.u.)       :      0.10829
Magnitude (Debye)      :      0.27526



--------------------
Rotational spectrum 
--------------------
 
Rotational constants in cm-1:     0.278672     0.262059     0.152966 
Rotational constants in MHz :  8354.377040  7856.318566  4585.813929 

 Dipole components along the rotational axes: 
x,y,z [a.u.] :    -0.000770    -0.050573     0.095757 
x,y,z [Debye]:    -0.001957    -0.128546     0.243395 

 

Timings for individual modules:

Sum of individual times         ...     8597.912 sec (= 143.299 min)
GTO integral calculation        ...      185.384 sec (=   3.090 min)   2.2 %
SCF iterations                  ...     8199.083 sec (= 136.651 min)  95.4 %
SCF Gradient evaluation         ...      121.028 sec (=   2.017 min)   1.4 %
Geometry relaxation             ...       92.417 sec (=   1.540 min)   1.1 %
                             ****ORCA TERMINATED NORMALLY****
TOTAL RUN TIME: 0 days 2 hours 28 minutes 25 seconds 670 msec
