
                                 *****************
                                 * O   R   C   A *
                                 *****************

           --- An Ab Initio, DFT and Semiempirical electronic structure package ---

                  #######################################################
                  #                        -***-                        #
                  #          Department of theory and spectroscopy      #
                  #               Directorship: Frank Neese             #
                  #        Max Planck Institute fuer Kohlenforschung    #
                  #                Kaiser Wilhelm Platz 1               #
                  #                 D-45470 Muelheim/Ruhr               #
                  #                      Germany                        #
                  #                                                     #
                  #                  All rights reserved                #
                  #                        -***-                        #
                  #######################################################


                         Program Version 4.2.1 -  RELEASE  -


 With contributions from (in alphabetic order):
   Daniel Aravena         : Magnetic Suceptibility
   Michael Atanasov       : Ab Initio Ligand Field Theory (pilot matlab implementation)
   Alexander A. Auer      : GIAO ZORA, VPT2
   Ute Becker             : Parallelization
   Giovanni Bistoni       : ED, misc. LED, open-shell LED, HFLD
   Martin Brehm           : Molecular dynamics
   Dmytro Bykov           : SCF Hessian
   Vijay G. Chilkuri      : MRCI spin determinant printing, contributions to CSF-ICE
   Dipayan Datta          : RHF DLPNO-CCSD density
   Achintya Kumar Dutta   : EOM-CC, STEOM-CC
   Dmitry Ganyushin       : Spin-Orbit,Spin-Spin,Magnetic field MRCI
   Miquel Garcia          : C-PCM Hessian, Gaussian charge scheme
   Yang Guo               : DLPNO-NEVPT2, CIM, IAO-localization
   Andreas Hansen         : Spin unrestricted coupled pair/coupled cluster methods
   Benjamin Helmich-Paris : CASSCF linear response (MC-RPA)
   Lee Huntington         : MR-EOM, pCC
   Robert Izsak           : Overlap fitted RIJCOSX, COSX-SCS-MP3, EOM
   Christian Kollmar      : KDIIS, OOCD, Brueckner-CCSD(T), CCSD density
   Simone Kossmann        : Meta GGA functionals, TD-DFT gradient, OOMP2, MP2 Hessian
   Martin Krupicka        : AUTO-CI
   Lucas Lang             : DCDCAS
   Dagmar Lenk            : GEPOL surface, SMD
   Dimitrios Liakos       : Extrapolation schemes; Compound Job, initial MDCI parallelization
   Dimitrios Manganas     : Further ROCIS development; embedding schemes
   Dimitrios Pantazis     : SARC Basis sets
   Taras Petrenko         : DFT Hessian,TD-DFT gradient, ASA, ECA, R-Raman, ABS, FL, XAS/XES, NRVS
   Peter Pinski           : DLPNO-MP2, DLPNO-MP2 Gradient
   Christoph Reimann      : Effective Core Potentials
   Marius Retegan         : Local ZFS, SOC
   Christoph Riplinger    : Optimizer, TS searches, QM/MM, DLPNO-CCSD(T), (RO)-DLPNO pert. Triples
   Tobias Risthaus        : Range-separated hybrids, TD-DFT gradient, RPA, STAB
   Michael Roemelt        : Original ROCIS implementation
   Masaaki Saitow         : Open-shell DLPNO-CCSD energy and density
   Barbara Sandhoefer     : DKH picture change effects
   Avijit Sen             : IP-ROCIS
   Kantharuban Sivalingam : CASSCF convergence, NEVPT2, FIC-MRCI
   Bernardo de Souza      : ESD, SOC TD-DFT
   Georgi Stoychev        : AutoAux, RI-MP2 NMR
   Willem Van den Heuvel  : Paramagnetic NMR
   Boris Wezisla          : Elementary symmetry handling
   Frank Wennmohs         : Technical directorship


 We gratefully acknowledge several colleagues who have allowed us to
 interface, adapt or use parts of their codes:
   Stefan Grimme, W. Hujo, H. Kruse,             : VdW corrections, initial TS optimization,
                  C. Bannwarth                     DFT functionals, gCP, sTDA/sTD-DF
   Ed Valeev, F. Pavosevic, A. Kumar             : LibInt (2-el integral package), F12 methods
   Garnet Chan, S. Sharma, J. Yang, R. Olivares  : DMRG
   Ulf Ekstrom                                   : XCFun DFT Library
   Mihaly Kallay                                 : mrcc  (arbitrary order and MRCC methods)
   Andreas Klamt, Michael Diedenhofen            : otool_cosmo (COSMO solvation model)
   Jiri Pittner, Ondrej Demel                    : Mk-CCSD
   Frank Weinhold                                : gennbo (NPA and NBO analysis)
   Christopher J. Cramer and Donald G. Truhlar   : smd solvation model
   Lars Goerigk                                  : TD-DFT with DH, B97 family of functionals
   V. Asgeirsson, H. Jonsson                     : NEB implementation
   FAccTs GmbH                                   : IRC, NEB, NEB-TS, Multilevel, MM, QM/MM, CI optimization
   S Lehtola, MJT Oliveira, MAL Marques          : LibXC Library


 Your calculation uses the libint2 library for the computation of 2-el integrals
 For citations please refer to: http://libint.valeyev.net

 Your ORCA version has been built with support for libXC version: 4.2.3
 For citations please refer to: https://tddft.org/programs/libxc/

 This ORCA versions uses:
   CBLAS   interface :  Fast vector & matrix operations
   LAPACKE interface :  Fast linear algebra routines
   SCALAPACK package :  Parallel linear algebra routines


Your calculation utilizes the atom-pairwise dispersion correction
with the Becke-Johnson damping scheme (D3BJ)
Cite in your paper:
S.Grimme, S.Ehrlich, L.Goerigk, J Comput Chem, (2011), 32, 1456–1465 
S.Grimme, J.Antony, S.Ehrlich and H.Krieg, J.Chem.Phys., 132, (2010), 154104 
   

----- Orbital basis set information -----
Your calculation utilizes the basis: def2-SV(P)
   F. Weigend and R. Ahlrichs, Phys. Chem. Chem. Phys. 7, 3297 (2005).

----- AuxJ basis set information -----
Your calculation utilizes the auxiliary basis: def2/J
   F. Weigend, Phys. Chem. Chem. Phys. 8, 1057 (2006).

================================================================================
                                        WARNINGS
                       Please study these warnings very carefully!
================================================================================


WARNING: Geometry Optimization
  ===> : Switching off AutoStart
         For restart on a previous wavefunction, please use MOREAD

INFO   : the flag for use of LIBINT has been found!

================================================================================
                                       INPUT FILE
================================================================================
NAME = orca5.inp
|  1> ! UKS B3LYP def2-SV(P) def2/J D3BJ Opt
|  2> %scf Convergence VeryTight
|  3> SmearTemp 2000
|  4> maxiter 500
|  5> end
|  6> *xyz 0 2
|  7> C -0.013801 0.075577 0.399739
|  8> C -0.348355 1.386235 -0.271444
|  9> C 1.360581 -0.419639 0.068919
| 10> C -1.012493 -0.978134 -0.044105
| 11> H -0.1868 0.210216 1.494906
| 12> H 0.184781 2.224524 0.242874
| 13> H -0.107453 1.367219 -1.359916
| 14> H 1.359594 -1.460325 -0.340495
| 15> H 1.93323 -0.481087 1.029512
| 16> H 1.920686 0.247782 -0.614047
| 17> H -0.586168 -1.454504 -0.942256
| 18> H -1.091176 -1.764691 0.733695
| 19> H -1.960313 -0.467155 -0.259917
| 20> *
| 21> 
| 22>                          ****END OF INPUT****
================================================================================

                       *****************************
                       * Geometry Optimization Run *
                       *****************************

Geometry optimization settings:
Update method            Update   .... BFGS
Choice of coordinates    CoordSys .... Z-matrix Internals
Initial Hessian          InHess   .... Almoef's Model

Convergence Tolerances:
Energy Change            TolE     ....  5.0000e-06 Eh
Max. Gradient            TolMAXG  ....  3.0000e-04 Eh/bohr
RMS Gradient             TolRMSG  ....  1.0000e-04 Eh/bohr
Max. Displacement        TolMAXD  ....  4.0000e-03 bohr
RMS Displacement         TolRMSD  ....  2.0000e-03 bohr
Strict Convergence                ....  False
------------------------------------------------------------------------------
                        ORCA OPTIMIZATION COORDINATE SETUP
------------------------------------------------------------------------------

The optimization will be done in new redundant internal coordinates
Making redundant internal coordinates   ...  (new redundants) done
Evaluating the initial hessian          ...  (Almloef) done
Evaluating the coordinates              ...  done
Calculating the B-matrix                .... done
Calculating the G-matrix                .... done
Diagonalizing the G-matrix              .... done
The first mode is                       ....   24
The number of degrees of freedom        ....   33

    -----------------------------------------------------------------
                    Redundant Internal Coordinates


    -----------------------------------------------------------------
         Definition                    Initial Value    Approx d2E/dq
    -----------------------------------------------------------------
      1. B(C   1,C   0)                  1.5100         0.401988   
      2. B(C   2,C   0)                  1.4979         0.420381   
      3. B(C   3,C   0)                  1.5181         0.390239   
      4. B(H   4,C   0)                  1.1169         0.326226   
      5. B(H   5,C   1)                  1.1187         0.324069   
      6. B(H   6,C   1)                  1.1150         0.328533   
      7. B(H   7,C   2)                  1.1183         0.324515   
      8. B(H   8,C   2)                  1.1200         0.322500   
      9. B(H   9,C   2)                  1.1071         0.338208   
     10. B(H  10,C   3)                  1.1024         0.344024   
     11. B(H  11,C   3)                  1.1090         0.335848   
     12. B(H  12,C   3)                  1.0982         0.349418   
     13. A(C   1,C   0,H   4)          107.2706         0.322965   
     14. A(C   2,C   0,H   4)          113.4871         0.325346   
     15. A(C   1,C   0,C   2)          113.0839         0.375495   
     16. A(C   1,C   0,C   3)          109.0713         0.370710   
     17. A(C   2,C   0,C   3)          108.0331         0.373577   
     18. A(C   3,C   0,H   4)          105.5722         0.321400   
     19. A(H   5,C   1,H   6)          111.0162         0.282030   
     20. A(C   0,C   1,H   6)          111.7922         0.323339   
     21. A(C   0,C   1,H   5)          109.9053         0.322614   
     22. A(H   7,C   2,H   9)          109.6099         0.283363   
     23. A(C   0,C   2,H   9)          113.6506         0.327284   
     24. A(H   7,C   2,H   8)          105.2708         0.281282   
     25. A(C   0,C   2,H   8)          107.3285         0.324733   
     26. A(H   8,C   2,H   9)          107.6678         0.283089   
     27. A(C   0,C   2,H   7)          112.8120         0.325065   
     28. A(H  11,C   3,H  12)          113.9917         0.286330   
     29. A(H  10,C   3,H  12)          112.0067         0.287407   
     30. A(C   0,C   3,H  12)          107.5940         0.325040   
     31. A(H  10,C   3,H  11)          106.9994         0.285636   
     32. A(C   0,C   3,H  11)          109.5064         0.322934   
     33. A(C   0,C   3,H  10)          106.4819         0.324211   
     34. D(H   6,C   1,C   0,C   3)    -71.6403         0.011987   
     35. D(H   6,C   1,C   0,H   4)    174.4724         0.011987   
     36. D(H   6,C   1,C   0,C   2)     48.5849         0.011987   
     37. D(H   5,C   1,C   0,H   4)     50.7240         0.011987   
     38. D(H   5,C   1,C   0,C   2)    -75.1635         0.011987   
     39. D(H   5,C   1,C   0,C   3)    164.6113         0.011987   
     40. D(H   7,C   2,C   0,C   1)   -125.5291         0.013982   
     41. D(H   9,C   2,C   0,C   1)      0.0396         0.013982   
     42. D(H   8,C   2,C   0,H   4)     -3.5170         0.013982   
     43. D(H   8,C   2,C   0,C   1)    118.9684         0.013982   
     44. D(H   7,C   2,C   0,H   4)    111.9855         0.013982   
     45. D(H   7,C   2,C   0,C   3)     -4.7129         0.013982   
     46. D(H   9,C   2,C   0,C   3)    120.8558         0.013982   
     47. D(H   9,C   2,C   0,H   4)   -122.4458         0.013982   
     48. D(H   8,C   2,C   0,C   3)   -120.2154         0.013982   
     49. D(H  12,C   3,C   0,H   4)     85.1129         0.012106   
     50. D(H  12,C   3,C   0,C   1)    -29.8759         0.012106   
     51. D(H  11,C   3,C   0,H   4)    -39.2799         0.012106   
     52. D(H  11,C   3,C   0,C   2)     82.4443         0.012106   
     53. D(H  11,C   3,C   0,C   1)   -154.2688         0.012106   
     54. D(H  10,C   3,C   0,H   4)   -154.6374         0.012106   
     55. D(H  12,C   3,C   0,C   2)   -153.1629         0.012106   
     56. D(H  10,C   3,C   0,C   2)    -32.9132         0.012106   
     57. D(H  10,C   3,C   0,C   1)     90.3737         0.012106   
    -----------------------------------------------------------------

Number of atoms                         .... 13
Number of degrees of freedom            .... 57

Time needed for optimization step       :     5.84 sec

         *************************************************************
         *                GEOMETRY OPTIMIZATION CYCLE   1            *
         *************************************************************
---------------------------------
CARTESIAN COORDINATES (ANGSTROEM)
---------------------------------
  C     -0.013801    0.075577    0.399739
  C     -0.348355    1.386235   -0.271444
  C      1.360581   -0.419639    0.068919
  C     -1.012493   -0.978134   -0.044105
  H     -0.186800    0.210216    1.494906
  H      0.184781    2.224524    0.242874
  H     -0.107453    1.367219   -1.359916
  H      1.359594   -1.460325   -0.340495
  H      1.933230   -0.481087    1.029512
  H      1.920686    0.247782   -0.614047
  H     -0.586168   -1.454504   -0.942256
  H     -1.091176   -1.764691    0.733695
  H     -1.960313   -0.467155   -0.259917

----------------------------
CARTESIAN COORDINATES (A.U.)
----------------------------
  NO LB      ZA    FRAG     MASS         X           Y           Z
   0 C     6.0000    0    12.011   -0.026080    0.142820    0.755397
   1 C     6.0000    0    12.011   -0.658296    2.619605   -0.512955
   2 C     6.0000    0    12.011    2.571125   -0.793003    0.130238
   3 C     6.0000    0    12.011   -1.913334   -1.848405   -0.083346
   4 H     1.0000    0     1.008   -0.353001    0.397251    2.824963
   5 H     1.0000    0     1.008    0.349185    4.203741    0.458965
   6 H     1.0000    0     1.008   -0.203057    2.583669   -2.569869
   7 H     1.0000    0     1.008    2.569260   -2.759614   -0.643442
   8 H     1.0000    0     1.008    3.653275   -0.909123    1.945496
   9 H     1.0000    0     1.008    3.629571    0.468240   -1.160381
  10 H     1.0000    0     1.008   -1.107697   -2.748614   -1.780606
  11 H     1.0000    0     1.008   -2.062024   -3.334783    1.386483
  12 H     1.0000    0     1.008   -3.704455   -0.882795   -0.491172

--------------------------------
INTERNAL COORDINATES (ANGSTROEM)
--------------------------------
 C      0   0   0     0.000000000000     0.00000000     0.00000000
 C      1   0   0     1.510045493145     0.00000000     0.00000000
 C      1   2   0     1.497867364282   113.08392284     0.00000000
 C      1   2   3     1.518120574500   109.07125986   239.77476433
 H      1   2   3     1.116891701201   107.27063048   125.88746310
 H      2   1   3     1.118698103664   109.90533233   284.83650652
 H      2   1   3     1.114973845722   111.79223283    48.58492715
 H      3   1   2     1.118323811855   112.81196778   234.47090611
 H      3   1   2     1.120018591611   107.32852447   118.96839286
 H      3   1   2     1.107073149987   113.65058066     0.03958549
 H      4   1   2     1.102432130032   106.48188855    90.37374681
 H      4   1   2     1.108979606998   109.50637301   205.73123915
 H      4   1   2     1.098197209150   107.59398317   330.12405024

---------------------------
INTERNAL COORDINATES (A.U.)
---------------------------
 C      0   0   0     0.000000000000     0.00000000     0.00000000
 C      1   0   0     2.853572431807     0.00000000     0.00000000
 C      1   2   0     2.830559103431   113.08392284     0.00000000
 C      1   2   3     2.868832124077   109.07125986   239.77476433
 H      1   2   3     2.110619436519   107.27063048   125.88746310
 H      2   1   3     2.114033042462   109.90533233   284.83650652
 H      2   1   3     2.106995214899   111.79223283    48.58492715
 H      3   1   2     2.113325733448   112.81196778   234.47090611
 H      3   1   2     2.116528403045   107.32852447   118.96839286
 H      3   1   2     2.092065063693   113.65058066     0.03958549
 H      4   1   2     2.083294806995   106.48188855    90.37374681
 H      4   1   2     2.095667745330   109.50637301   205.73123915
 H      4   1   2     2.075291966330   107.59398317   330.12405024

---------------------
BASIS SET INFORMATION
---------------------
There are 2 groups of distinct atoms

 Group   1 Type C   : 7s4p1d contracted to 3s2p1d pattern {511/31/1}
 Group   2 Type H   : 4s contracted to 2s pattern {31}

Atom   0C    basis set group =>   1
Atom   1C    basis set group =>   1
Atom   2C    basis set group =>   1
Atom   3C    basis set group =>   1
Atom   4H    basis set group =>   2
Atom   5H    basis set group =>   2
Atom   6H    basis set group =>   2
Atom   7H    basis set group =>   2
Atom   8H    basis set group =>   2
Atom   9H    basis set group =>   2
Atom  10H    basis set group =>   2
Atom  11H    basis set group =>   2
Atom  12H    basis set group =>   2
---------------------------------
AUXILIARY/J BASIS SET INFORMATION
---------------------------------
There are 2 groups of distinct atoms

 Group   1 Type C   : 12s5p4d2f1g contracted to 6s4p3d1f1g pattern {711111/2111/211/2/1}
 Group   2 Type H   : 5s2p1d contracted to 3s1p1d pattern {311/2/1}

Atom   0C    basis set group =>   1
Atom   1C    basis set group =>   1
Atom   2C    basis set group =>   1
Atom   3C    basis set group =>   1
Atom   4H    basis set group =>   2
Atom   5H    basis set group =>   2
Atom   6H    basis set group =>   2
Atom   7H    basis set group =>   2
Atom   8H    basis set group =>   2
Atom   9H    basis set group =>   2
Atom  10H    basis set group =>   2
Atom  11H    basis set group =>   2
Atom  12H    basis set group =>   2
------------------------------------------------------------------------------
                           ORCA GTO INTEGRAL CALCULATION
------------------------------------------------------------------------------

                         BASIS SET STATISTICS AND STARTUP INFO

 # of primitive gaussian shells          ...   84
 # of primitive gaussian functions       ...  132
 # of contracted shells                  ...   42
 # of contracted basis functions         ...   74
 Highest angular momentum                ...    2
 Maximum contraction depth               ...    5
 Integral package used                   ... LIBINT
 Integral threshhold            Thresh   ...  1.000e-12
 Primitive cut-off              TCut     ...  1.000e-14


------------------------------ INTEGRAL EVALUATION ----------------------------


 * One electron integrals 
 Pre-screening matrix                    ... done
 Shell pair data                         ... done (   0.000 sec)

-------------------------------------------------------------------------------
                                 ORCA SCF
-------------------------------------------------------------------------------

------------
SCF SETTINGS
------------
Hamiltonian:
 Density Functional     Method          .... DFT(GTOs)
 Exchange Functional    Exchange        .... B88
   X-Alpha parameter    XAlpha          ....  0.666667
   Becke's b parameter  XBeta           ....  0.004200
 Correlation Functional Correlation     .... LYP
 LDA part of GGA corr.  LDAOpt          .... VWN-5
 Gradients option       PostSCFGGA      .... off
 Hybrid DFT is turned on
   Fraction HF Exchange ScalHFX         ....  0.200000
   Scaling of DF-GGA-X  ScalDFX         ....  0.720000
   Scaling of DF-GGA-C  ScalDFC         ....  0.810000
   Scaling of DF-LDA-C  ScalLDAC        ....  1.000000
   Perturbative correction              ....  0.000000
   Density functional embedding theory  .... OFF
   NL short-range parameter             ....  4.800000


General Settings:
 Integral files         IntName         .... orca5
 Hartree-Fock type      HFTyp           .... UHF
 Total Charge           Charge          ....    0
 Multiplicity           Mult            ....    2
 Number of Electrons    NEL             ....   33
 Basis Dimension        Dim             ....   74
 Nuclear Repulsion      ENuc            ....    127.4495887118 Eh

Convergence Acceleration:
 DIIS                   CNVDIIS         .... on
   Start iteration      DIISMaxIt       ....    12
   Startup error        DIISStart       ....  0.200000
   # of expansion vecs  DIISMaxEq       ....     5
   Bias factor          DIISBfac        ....   1.050
   Max. coefficient     DIISMaxC        ....  10.000
 Newton-Raphson         CNVNR           .... off
 SOSCF                  CNVSOSCF        .... off
 Level Shifting         CNVShift        .... on
   Level shift para.    LevelShift      ....    0.2500
   Turn off err/grad.   ShiftErr        ....    0.0010
 Zerner damping         CNVZerner       .... off
 Static damping         CNVDamp         .... on
   Fraction old density DampFac         ....    0.7000
   Max. Damping (<1)    DampMax         ....    0.9800
   Min. Damping (>=0)   DampMin         ....    0.0000
   Turn off err/grad.   DampErr         ....    0.1000
 Fernandez-Rico         CNVRico         .... off

SCF Procedure:
 Maximum # iterations   MaxIter         ....   500
 SCF integral mode      SCFMode         .... Direct
   Integral package                     .... LIBINT
 Reset frequency        DirectResetFreq ....    20
 Integral Threshold     Thresh          ....  1.000e-12 Eh
 Primitive CutOff       TCut            ....  1.000e-14 Eh

Convergence Tolerance:
 Convergence Check Mode ConvCheckMode   .... Total+1el-Energy
 Convergence forced     ConvForced      .... 0
 Energy Change          TolE            ....  1.000e-09 Eh
 1-El. energy change                    ....  1.000e-06 Eh
 DIIS Error             TolErr          ....  1.000e-08


Diagonalization of the overlap matrix:
Smallest eigenvalue                        ... 1.761e-03
Time for diagonalization                   ...    0.001 sec
Threshold for overlap eigenvalues          ... 1.000e-08
Number of eigenvalues below threshold      ... 0
Time for construction of square roots      ...    2.402 sec
Total time needed                          ...    2.404 sec

-------------------
DFT GRID GENERATION
-------------------

General Integration Accuracy     IntAcc      ...  4.340
Radial Grid Type                 RadialGrid  ... Gauss-Chebyshev
Angular Grid (max. acc.)         AngularGrid ... Lebedev-110
Angular grid pruning method      GridPruning ... 3 (G Style)
Weight generation scheme         WeightScheme... Becke
Basis function cutoff            BFCut       ...    1.0000e-12
Integration weight cutoff        WCut        ...    1.0000e-14
Grids for H and He will be reduced by one unit

# of grid points (after initial pruning)     ...  13770 (   0.0 sec)
# of grid points (after weights+screening)   ...  12873 (   0.0 sec)
nearest neighbour list constructed           ...    0.0 sec
Grid point re-assignment to atoms done       ...    0.0 sec
Grid point division into batches done        ...    0.0 sec
Reduced shell lists constructed in    0.1 sec

Total number of grid points                  ...    12873
Total number of batches                      ...      206
Average number of points per batch           ...       62
Average number of grid points per atom       ...      990
Average number of shells per batch           ...    37.37 (88.97%)
Average number of basis functions per batch  ...    66.60 (90.01%)
Average number of large shells per batch     ...    32.96 (88.21%)
Average number of large basis fcns per batch ...    58.49 (87.81%)
Maximum spatial batch extension              ...  25.60, 22.44, 19.49 au
Average spatial batch extension              ...   4.14,  4.08,  3.84 au

Time for grid setup =    7.501 sec

------------------------------
INITIAL GUESS: MODEL POTENTIAL
------------------------------
Loading Hartree-Fock densities                     ... done
Calculating cut-offs                               ... done
Setting up the integral package                    ... done
Initializing the effective Hamiltonian             ... done
Starting the Coulomb interaction                   ... done (   0.0 sec)
Reading the grid                                   ... done
Mapping shells                                     ... done
Starting the XC term evaluation                    ... done (   0.1 sec)
  promolecular density results
     # of electrons  =     32.997419035
     EX              =    -23.186614426
     EC              =     -1.032384800
     EX+EC           =    -24.218999226
Transforming the Hamiltonian                       ... done (   1.4 sec)
Diagonalizing the Hamiltonian                      ... done (   0.0 sec)
Back transforming the eigenvectors                 ... done (   0.0 sec)
Now organizing SCF variables                       ... done
                      ------------------
                      INITIAL GUESS DONE (   9.1 sec)
                      ------------------
--------------
SCF ITERATIONS
--------------
ITER       Energy         Delta-E        Max-DP      RMS-DP      [F,P]     Damp
               ***  Starting incremental Fock matrix formation  ***
  0   -157.3562575136   0.000000000000 0.04414431  0.00210435  0.1706372 0.7000
  1   -157.4249762333  -0.068718719688 0.02718416  0.00150885  0.0880468 0.7000
                               ***Turning on DIIS***
  2   -157.4526131755  -0.027636942225 0.03744413  0.00250275  0.0322071 0.0000
  3   -157.4905250771  -0.037911901562 0.01846685  0.00105618  0.0488017 0.0000
  4   -157.5027577619  -0.012232684875 0.00627965  0.00032665  0.0096232 0.0000
  5   -157.5033932244  -0.000635462485 0.00185554  0.00011538  0.0021163 0.0000
  6   -157.5034462590  -0.000053034601 0.00151889  0.00007821  0.0006604 0.0000
  7   -157.5034576290  -0.000011370008 0.00040228  0.00001458  0.0001981 0.0000
  8   -157.5034585680  -0.000000938945 0.00015319  0.00000522  0.0000804 0.0000
  9   -157.5034586998  -0.000000131821 0.00006990  0.00000225  0.0000530 0.0000
 10   -157.5034587290  -0.000000029196 0.00002375  0.00000089  0.0000112 0.0000
 11   -157.5034587343  -0.000000005322 0.00001268  0.00000052  0.0000028 0.0000
 12   -157.5034587357  -0.000000001391 0.00000318  0.00000011  0.0000016 0.0000
 13   -157.5034587358  -0.000000000128 0.00000367  0.00000014  0.0000010 0.0000
 14   -157.5034587359  -0.000000000096 0.00000125  0.00000005  0.0000004 0.0000
 15   -157.5034587359  -0.000000000014 0.00000079  0.00000003  0.0000001 0.0000
 16   -157.5034587359   0.000000000004 0.00000008  0.00000000  0.0000001 0.0000
                 **** Energy Check signals convergence ****

 Fermi smearing  (ALPHA): E(HOMO(Eh)) = -0.313757 MUE = -0.086872 gap=   7.803 eV
 Fermi smearing   (BETA): E(HOMO(Eh)) = -0.311180 MUE = -0.186928 gap=   6.720 eV

N_FOD(alpha) =  0.000000
 N_FOD(beta) =  0.000000
       N_FOD =  0.000000

               *****************************************************
               *                     SUCCESS                       *
               *           SCF CONVERGED AFTER  17 CYCLES          *
               *****************************************************

Setting up the final grid:

General Integration Accuracy     IntAcc      ...  4.670
Radial Grid Type                 RadialGrid  ... Gauss-Chebyshev
Angular Grid (max. acc.)         AngularGrid ... Lebedev-302
Angular grid pruning method      GridPruning ... 3 (G Style)
Weight generation scheme         WeightScheme... Becke
Basis function cutoff            BFCut       ...    1.0000e-12
Integration weight cutoff        WCut        ...    1.0000e-14
Grids for H and He will be reduced by one unit

# of grid points (after initial pruning)     ...  55394 (   0.0 sec)
# of grid points (after weights+screening)   ...  51156 (   0.1 sec)
nearest neighbour list constructed           ...    0.0 sec
Grid point re-assignment to atoms done       ...    0.0 sec
Grid point division into batches done        ...    0.2 sec
Reduced shell lists constructed in    0.4 sec

Total number of grid points                  ...    51156
Total number of batches                      ...      807
Average number of points per batch           ...       63
Average number of grid points per atom       ...     3935
Average number of shells per batch           ...    35.08 (83.52%)
Average number of basis functions per batch  ...    62.34 (84.25%)
Average number of large shells per batch     ...    30.31 (86.40%)
Average number of large basis fcns per batch ...    53.45 (85.74%)
Maximum spatial batch extension              ...  21.21, 17.31, 16.69 au
Average spatial batch extension              ...   2.65,  2.70,  2.56 au

Final grid set up in    3.1 sec
Final integration                            ... done (  27.1 sec)
Change in XC energy                          ...     0.000198075
Integrated number of electrons               ...    32.999981845
Previous integrated no of electrons          ...    33.001726370

----------------
TOTAL SCF ENERGY
----------------

Total Energy       :         -157.50326066 Eh           -4285.88161 eV

Components:
Nuclear Repulsion  :          127.44958871 Eh            3468.07962 eV
Electronic Energy  :         -284.95284937 Eh           -7753.96124 eV
One Electron Energy:         -462.39728858 Eh          -12582.46990 eV
Two Electron Energy:          177.44443921 Eh            4828.50867 eV

Virial components:
Potential Energy   :         -313.40065493 Eh           -8528.06538 eV
Kinetic Energy     :          155.89739427 Eh            4242.18377 eV
Virial Ratio       :            2.01030079


DFT components:
N(Alpha)           :       16.999986778755 electrons
N(Beta)            :       15.999995066741 electrons
N(Total)           :       32.999981845497 electrons
E(X)               :      -18.886334622069 Eh       
E(C)               :       -1.220997575551 Eh       
E(XC)              :      -20.107332197620 Eh       
DFET-embed. en.    :        0.000000000000 Eh       

---------------
SCF CONVERGENCE
---------------

  Last Energy change         ...   -1.2932e-11  Tolerance :   1.0000e-09
  Last MAX-Density change    ...    9.7587e-08  Tolerance :   1.0000e-08
  Last RMS-Density change    ...    4.6433e-09  Tolerance :   1.0000e-09
  Last DIIS Error            ...    2.0661e-08  Tolerance :   1.0000e-08

             **** THE GBW FILE WAS UPDATED (orca5.gbw) ****
             **** DENSITY FILE WAS UPDATED (orca5.scfp) ****
             **** ENERGY FILE WAS UPDATED (orca5.en.tmp) ****
             **** THE GBW FILE WAS UPDATED (orca5.gbw) ****
             **** DENSITY FILE WAS UPDATED (orca5.scfp) ****
----------------
ORBITAL ENERGIES
----------------
                 SPIN UP ORBITALS
  NO   OCC          E(Eh)            E(eV) 
   0   1.0000     -10.189987      -277.2836 
   1   1.0000     -10.180408      -277.0230 
   2   1.0000     -10.173155      -276.8256 
   3   1.0000     -10.162257      -276.5291 
   4   1.0000      -0.805361       -21.9150 
   5   1.0000      -0.671546       -18.2737 
   6   1.0000      -0.665209       -18.1013 
   7   1.0000      -0.546142       -14.8613 
   8   1.0000      -0.462127       -12.5751 
   9   1.0000      -0.441096       -12.0028 
  10   1.0000      -0.412233       -11.2174 
  11   1.0000      -0.395833       -10.7712 
  12   1.0000      -0.384810       -10.4712 
  13   1.0000      -0.342271        -9.3137 
  14   1.0000      -0.324980        -8.8432 
  15   1.0000      -0.313757        -8.5378 
  16   1.0000      -0.230254        -6.2655 
  17   0.0000       0.056510         1.5377 
  18   0.0000       0.086041         2.3413 
  19   0.0000       0.103840         2.8256 
  20   0.0000       0.114979         3.1287 
  21   0.0000       0.120810         3.2874 
  22   0.0000       0.129356         3.5199 
  23   0.0000       0.147059         4.0017 
  24   0.0000       0.165860         4.5133 
  25   0.0000       0.167472         4.5572 
  26   0.0000       0.224013         6.0957 
  27   0.0000       0.254171         6.9163 
  28   0.0000       0.272558         7.4167 
  29   0.0000       0.412673        11.2294 
  30   0.0000       0.434577        11.8254 
  31   0.0000       0.446345        12.1457 
  32   0.0000       0.497209        13.5298 
  33   0.0000       0.505809        13.7638 
  34   0.0000       0.518071        14.0974 
  35   0.0000       0.564391        15.3579 
  36   0.0000       0.598594        16.2886 
  37   0.0000       0.636760        17.3271 
  38   0.0000       0.652745        17.7621 
  39   0.0000       0.668746        18.1975 
  40   0.0000       0.670728        18.2514 
  41   0.0000       0.683399        18.5962 
  42   0.0000       0.695303        18.9201 
  43   0.0000       0.699507        19.0346 
  44   0.0000       0.705924        19.2092 
  45   0.0000       0.712263        19.3817 
  46   0.0000       0.717506        19.5243 
  47   0.0000       0.731486        19.9047 
  48   0.0000       0.746637        20.3170 
  49   0.0000       0.750821        20.4309 
  50   0.0000       0.789007        21.4700 
  51   0.0000       0.848350        23.0848 
  52   0.0000       0.955145        25.9908 
  53   0.0000       1.098810        29.9002 
  54   0.0000       1.400261        38.1030 
  55   0.0000       1.427908        38.8553 
  56   0.0000       1.748722        47.5851 
  57   0.0000       1.777208        48.3603 
  58   0.0000       1.811616        49.2966 
  59   0.0000       1.855739        50.4972 
  60   0.0000       1.899941        51.7000 
  61   0.0000       1.922836        52.3230 
  62   0.0000       1.985055        54.0161 
  63   0.0000       2.007959        54.6393 
  64   0.0000       2.078483        56.5584 
  65   0.0000       2.117309        57.6149 
  66   0.0000       2.145979        58.3950 
  67   0.0000       2.155665        58.6586 
  68   0.0000       2.201111        59.8953 
  69   0.0000       2.409559        65.5674 
  70   0.0000       2.444957        66.5306 
  71   0.0000       2.470409        67.2232 
  72   0.0000       2.682957        73.0070 
  73   0.0000       2.714668        73.8699 

                 SPIN DOWN ORBITALS
  NO   OCC          E(Eh)            E(eV) 
   0   1.0000     -10.180787      -277.0333 
   1   1.0000     -10.174670      -276.8668 
   2   1.0000     -10.171942      -276.7926 
   3   1.0000     -10.161698      -276.5139 
   4   1.0000      -0.798854       -21.7379 
   5   1.0000      -0.669212       -18.2102 
   6   1.0000      -0.643383       -17.5073 
   7   1.0000      -0.539575       -14.6826 
   8   1.0000      -0.458013       -12.4632 
   9   1.0000      -0.437609       -11.9080 
  10   1.0000      -0.403446       -10.9783 
  11   1.0000      -0.388379       -10.5683 
  12   1.0000      -0.383975       -10.4485 
  13   1.0000      -0.337578        -9.1860 
  14   1.0000      -0.319568        -8.6959 
  15   1.0000      -0.311180        -8.4676 
  16   0.0000      -0.064238        -1.7480 
  17   0.0000       0.057899         1.5755 
  18   0.0000       0.086889         2.3644 
  19   0.0000       0.108133         2.9424 
  20   0.0000       0.118161         3.2153 
  21   0.0000       0.124059         3.3758 
  22   0.0000       0.134882         3.6703 
  23   0.0000       0.149234         4.0609 
  24   0.0000       0.168591         4.5876 
  25   0.0000       0.169753         4.6192 
  26   0.0000       0.227114         6.1801 
  27   0.0000       0.256362         6.9760 
  28   0.0000       0.281023         7.6470 
  29   0.0000       0.415345        11.3021 
  30   0.0000       0.437340        11.9006 
  31   0.0000       0.451097        12.2750 
  32   0.0000       0.500735        13.6257 
  33   0.0000       0.525696        14.3049 
  34   0.0000       0.561883        15.2896 
  35   0.0000       0.574541        15.6341 
  36   0.0000       0.607067        16.5191 
  37   0.0000       0.641480        17.4555 
  38   0.0000       0.663972        18.0676 
  39   0.0000       0.671273        18.2663 
  40   0.0000       0.675840        18.3905 
  41   0.0000       0.688865        18.7450 
  42   0.0000       0.698550        19.0085 
  43   0.0000       0.702026        19.1031 
  44   0.0000       0.711335        19.3564 
  45   0.0000       0.716560        19.4986 
  46   0.0000       0.723986        19.7007 
  47   0.0000       0.737040        20.0559 
  48   0.0000       0.748834        20.3768 
  49   0.0000       0.753850        20.5133 
  50   0.0000       0.793628        21.5957 
  51   0.0000       0.855838        23.2885 
  52   0.0000       0.957300        26.0494 
  53   0.0000       1.100655        29.9504 
  54   0.0000       1.408409        38.3248 
  55   0.0000       1.438393        39.1407 
  56   0.0000       1.774609        48.2896 
  57   0.0000       1.799451        48.9655 
  58   0.0000       1.816240        49.4224 
  59   0.0000       1.889902        51.4268 
  60   0.0000       1.911999        52.0281 
  61   0.0000       1.950904        53.0868 
  62   0.0000       1.995149        54.2908 
  63   0.0000       2.027417        55.1688 
  64   0.0000       2.091982        56.9257 
  65   0.0000       2.121457        57.7278 
  66   0.0000       2.157175        58.6997 
  67   0.0000       2.162249        58.8378 
  68   0.0000       2.210727        60.1569 
  69   0.0000       2.426306        66.0232 
  70   0.0000       2.450022        66.6685 
  71   0.0000       2.473467        67.3065 
  72   0.0000       2.692072        73.2550 
  73   0.0000       2.720217        74.0209 

                    ********************************
                    * MULLIKEN POPULATION ANALYSIS *
                    ********************************

------------------------------------------
FOD BASED MULLIKEN REDUCED ORBITAL CHARGES
------------------------------------------
  0 C s       :    -0.000000  s :    -0.000000
      pz      :     0.000000  p :     0.000000
      px      :     0.000000
      py      :     0.000000
      dz2     :     0.000000  d :     0.000000
      dxz     :     0.000000
      dyz     :     0.000000
      dx2y2   :     0.000000
      dxy     :     0.000000
  1 C s       :     0.000000  s :     0.000000
      pz      :     0.000000  p :     0.000000
      px      :     0.000000
      py      :     0.000000
      dz2     :     0.000000  d :     0.000000
      dxz     :     0.000000
      dyz     :     0.000000
      dx2y2   :     0.000000
      dxy     :     0.000000
  2 C s       :    -0.000000  s :    -0.000000
      pz      :     0.000000  p :     0.000000
      px      :     0.000000
      py      :     0.000000
      dz2     :     0.000000  d :     0.000000
      dxz     :     0.000000
      dyz     :     0.000000
      dx2y2   :     0.000000
      dxy     :     0.000000
  3 C s       :    -0.000000  s :    -0.000000
      pz      :     0.000000  p :     0.000000
      px      :     0.000000
      py      :     0.000000
      dz2     :     0.000000  d :     0.000000
      dxz     :     0.000000
      dyz     :     0.000000
      dx2y2   :     0.000000
      dxy     :     0.000000
  4 H s       :     0.000000  s :     0.000000
  5 H s       :     0.000000  s :     0.000000
  6 H s       :     0.000000  s :     0.000000
  7 H s       :     0.000000  s :     0.000000
  8 H s       :     0.000000  s :     0.000000
  9 H s       :     0.000000  s :     0.000000
 10 H s       :     0.000000  s :     0.000000
 11 H s       :     0.000000  s :     0.000000
 12 H s       :     0.000000  s :     0.000000


                     *******************************
                     * LOEWDIN POPULATION ANALYSIS *
                     *******************************

-------------------------------------------
LOEWDIN ATOMIC CHARGES AND SPIN POPULATIONS
-------------------------------------------
   0 C :   -0.180465   -0.000840
   1 C :   -0.202163    0.955308
   2 C :   -0.304409    0.040081
   3 C :   -0.307852    0.018800
   4 H :    0.108432    0.002166
   5 H :    0.104748   -0.012547
   6 H :    0.104618   -0.012572
   7 H :    0.113867    0.003446
   8 H :    0.117049    0.002062
   9 H :    0.115184    0.001667
  10 H :    0.106757   -0.000615
  11 H :    0.111572    0.000752
  12 H :    0.112662    0.002291

----------------------------------------------------
LOEWDIN REDUCED ORBITAL CHARGES AND SPIN POPULATIONS
----------------------------------------------------
CHARGE
  0 C s       :     2.870207  s :     2.870207
      pz      :     1.078186  p :     3.196477
      px      :     1.052468
      py      :     1.065823
      dz2     :     0.029570  d :     0.113780
      dxz     :     0.013575
      dyz     :     0.016978
      dx2y2   :     0.024527
      dxy     :     0.029130
  1 C s       :     3.054937  s :     3.054937
      pz      :     1.077063  p :     3.086100
      px      :     0.947628
      py      :     1.061409
      dz2     :     0.019169  d :     0.061126
      dxz     :     0.006503
      dyz     :     0.014247
      dx2y2   :     0.007890
      dxy     :     0.013317
  2 C s       :     2.954877  s :     2.954877
      pz      :     1.114271  p :     3.274537
      px      :     1.066982
      py      :     1.093284
      dz2     :     0.009522  d :     0.074995
      dxz     :     0.020236
      dyz     :     0.012342
      dx2y2   :     0.019273
      dxy     :     0.013621
  3 C s       :     2.957916  s :     2.957916
      pz      :     1.105636  p :     3.274212
      px      :     1.092131
      py      :     1.076446
      dz2     :     0.011715  d :     0.075723
      dxz     :     0.009152
      dyz     :     0.022856
      dx2y2   :     0.013118
      dxy     :     0.018882
  4 H s       :     0.891568  s :     0.891568
  5 H s       :     0.895252  s :     0.895252
  6 H s       :     0.895382  s :     0.895382
  7 H s       :     0.886133  s :     0.886133
  8 H s       :     0.882951  s :     0.882951
  9 H s       :     0.884816  s :     0.884816
 10 H s       :     0.893243  s :     0.893243
 11 H s       :     0.888428  s :     0.888428
 12 H s       :     0.887338  s :     0.887338

SPIN
  0 C s       :    -0.002829  s :    -0.002829
      pz      :    -0.003697  p :    -0.009483
      px      :     0.002600
      py      :    -0.008385
      dz2     :     0.000928  d :     0.011472
      dxz     :     0.000127
      dyz     :     0.000711
      dx2y2   :     0.001985
      dxy     :     0.007722
  1 C s       :     0.097751  s :     0.097751
      pz      :     0.028778  p :     0.861179
      px      :     0.790572
      py      :     0.041829
      dz2     :    -0.000955  d :    -0.003623
      dxz     :    -0.000855
      dyz     :    -0.000389
      dx2y2   :    -0.000651
      dxy     :    -0.000773
  2 C s       :     0.012348  s :     0.012348
      pz      :     0.000956  p :     0.027300
      px      :     0.015763
      py      :     0.010581
      dz2     :    -0.000007  d :     0.000433
      dxz     :     0.000190
      dyz     :     0.000014
      dx2y2   :     0.000154
      dxy     :     0.000081
  3 C s       :     0.005639  s :     0.005639
      pz      :     0.000996  p :     0.013462
      px      :     0.000457
      py      :     0.012009
      dz2     :    -0.000031  d :    -0.000301
      dxz     :    -0.000073
      dyz     :    -0.000010
      dx2y2   :    -0.000229
      dxy     :     0.000041
  4 H s       :     0.002166  s :     0.002166
  5 H s       :    -0.012547  s :    -0.012547
  6 H s       :    -0.012572  s :    -0.012572
  7 H s       :     0.003446  s :     0.003446
  8 H s       :     0.002062  s :     0.002062
  9 H s       :     0.001667  s :     0.001667
 10 H s       :    -0.000615  s :    -0.000615
 11 H s       :     0.000752  s :     0.000752
 12 H s       :     0.002291  s :     0.002291


                      *****************************
                      * MAYER POPULATION ANALYSIS *
                      *****************************

  NA   - Mulliken gross atomic population
  ZA   - Total nuclear charge
  QA   - Mulliken gross atomic charge
  VA   - Mayer's total valence
  BVA  - Mayer's bonded valence
  FA   - Mayer's free valence

  ATOM       NA         ZA         QA         VA         BVA        FA
  0 C      6.1440     6.0000    -0.1440     4.2110     4.2084     0.0027
  1 C      6.1995     6.0000    -0.1995     3.8954     3.0282     0.8672
  2 C      6.2372     6.0000    -0.2372     3.9154     3.9141     0.0012
  3 C      6.2347     6.0000    -0.2347     3.9614     3.9612     0.0002
  4 H      0.9254     1.0000     0.0746     0.9400     0.9400     0.0000
  5 H      0.9089     1.0000     0.0911     0.9463     0.9451     0.0012
  6 H      0.9078     1.0000     0.0922     0.9535     0.9523     0.0013
  7 H      0.9028     1.0000     0.0972     0.9653     0.9653     0.0000
  8 H      0.9077     1.0000     0.0923     0.9541     0.9540     0.0000
  9 H      0.9030     1.0000     0.0970     0.9685     0.9685     0.0000
 10 H      0.9173     1.0000     0.0827     0.9643     0.9643     0.0000
 11 H      0.9068     1.0000     0.0932     0.9522     0.9522     0.0000
 12 H      0.9053     1.0000     0.0947     0.9655     0.9655     0.0000

  Mayer bond orders larger than 0.100000
B(  0-C ,  1-C ) :   1.1058 B(  0-C ,  2-C ) :   1.0526 B(  0-C ,  3-C ) :   1.1027 
B(  0-C ,  4-H ) :   0.9270 B(  1-C ,  5-H ) :   0.9442 B(  1-C ,  6-H ) :   0.9409 
B(  2-C ,  7-H ) :   0.9553 B(  2-C ,  8-H ) :   0.9543 B(  2-C ,  9-H ) :   0.9580 
B(  3-C , 10-H ) :   0.9582 B(  3-C , 11-H ) :   0.9566 B(  3-C , 12-H ) :   0.9573 


-------
TIMINGS
-------

Total SCF time: 0 days 0 hours 12 min 8 sec 

Total time                  ....     728.673 sec
Sum of individual times     ....     619.219 sec  ( 85.0%)

Fock matrix formation       ....     510.787 sec  ( 70.1%)
  XC integration            ....     285.233 sec  ( 55.8% of F)
    Basis function eval.    ....       0.797 sec  (  0.3% of XC)
    Density eval.           ....       0.568 sec  (  0.2% of XC)
    XC-Functional eval.     ....       0.349 sec  (  0.1% of XC)
    XC-Potential eval.      ....       0.867 sec  (  0.3% of XC)
Diagonalization             ....      18.582 sec  (  2.6%)
Density matrix formation    ....      41.293 sec  (  5.7%)
Population analysis         ....      24.715 sec  (  3.4%)
Initial guess               ....       1.612 sec  (  0.2%)
Orbital Transformation      ....       0.000 sec  (  0.0%)
Orbital Orthonormalization  ....       0.000 sec  (  0.0%)
DIIS solution               ....      11.631 sec  (  1.6%)
Grid generation             ....      10.598 sec  (  1.5%)


-------------------------------------------------------------------------------
                          DFT DISPERSION CORRECTION                            
                                                                               
                              DFTD3 V3.1  Rev 1                                
                          USING Becke-Johnson damping                          
-------------------------------------------------------------------------------
The B3LYP functional is recognized
Active option DFTDOPT                   ...         4   

molecular C6(AA) [au] = 1132.252822 


            DFT-D V3
 parameters
 s6 scaling factor         :     1.0000 
 a1 scaling factor         :     0.3981 
 s8 scaling factor         :     1.9889 
 a2 scaling factor         :     4.4211 
 ad hoc parameters k1-k3   :    16.0000     1.3333    -4.0000 

 Edisp/kcal,au: -9.244582920959  -0.014732179062 
 E6   /kcal   :  -4.582773224 
 E8   /kcal   :  -4.661809697 
 % E8         :  50.427474517 

-------------------------   ----------------
Dispersion correction           -0.014732179
-------------------------   ----------------


-------------------------   --------------------
FINAL SINGLE POINT ENERGY      -157.517992839744
-------------------------   --------------------

------------------------------------------------------------------------------
                         ORCA SCF GRADIENT CALCULATION
------------------------------------------------------------------------------

Gradient of the Kohn-Sham DFT energy:
Kohn-Sham wavefunction type      ... UKS
Hartree-Fock exchange scaling    ...    0.200
Number of operators              ...    2
Number of atoms                  ...   13
Basis set dimensions             ...   74
Integral neglect threshold       ... 1.0e-12
Integral primitive cutoff        ... 1.0e-14

Nuclear repulsion gradient       ... done
One Electron Gradient            ... done
Pre-screening matrix             ... done
Starting the two electron gradient:
Two electron gradient done
Exchange-correlation gradient    ... done
Dispersion correction            ... done

------------------
CARTESIAN GRADIENT
------------------

   1   C   :    0.040700302   -0.008470944   -0.006519374
   2   C   :   -0.045764249   -0.003546374   -0.000807510
   3   C   :   -0.038198787    0.009352873   -0.021259994
   4   C   :   -0.000193804    0.006794128    0.000173474
   5   H   :   -0.008807658   -0.001126381    0.005129039
   6   H   :    0.014974480   -0.002059538    0.006068413
   7   H   :    0.013555109   -0.003699383   -0.003129466
   8   H   :   -0.000387991   -0.010406479    0.000003719
   9   H   :   -0.003663851   -0.001062896    0.010750424
  10   H   :    0.000305236    0.002604511    0.000215349
  11   H   :    0.011482457    0.001447261    0.005972250
  12   H   :    0.006956187   -0.000459343    0.003820828
  13   H   :    0.009042570    0.010632565   -0.000417151

Difference to translation invariance:
           :    0.0000000000    0.0000000000   -0.0000000000

Norm of the cartesian gradient     ...    0.0847005032
RMS gradient                       ...    0.0135629352
MAX gradient                       ...    0.0457642487

-------
TIMINGS
-------

Total SCF gradient time            ...        3.864 sec

One electron gradient       ....       0.027 sec  (  0.7%)
Prescreening matrices       ....       0.025 sec  (  0.6%)
Two electron gradient       ....       1.322 sec  ( 34.2%)
XC gradient                 ....       2.346 sec  ( 60.7%)
------------------------------------------------------------------------------
                         ORCA GEOMETRY RELAXATION STEP
------------------------------------------------------------------------------

Reading the OPT-File                    .... done
Getting information on internals        .... done
Copying old internal coords+grads       .... done
Making the new internal coordinates     .... (new redundants).... done
Validating the new internal coordinates .... (new redundants).... done
Calculating the B-matrix                .... done
Calculating the G,G- and P matrices     .... done
Transforming gradient to internals      .... done
Projecting the internal gradient        .... done
Number of atoms                         ....  13
Number of internal coordinates          ....  57
Current Energy                          ....  -157.517992840 Eh
Current gradient norm                   ....     0.084700503 Eh/bohr
Maximum allowed component of the step   ....  0.300
Current trust radius                    ....  0.300
Evaluating the initial hessian          ....  (Almloef) done
Projecting the Hessian                  .... done
Forming the augmented Hessian           .... done
Diagonalizing the augmented Hessian     .... done
Last element of RFO vector              ....  0.934551007
Lowest eigenvalues of augmented Hessian:
 -0.021494443  0.011997944  0.012971173  0.014018825  0.072029275
Length of the computed step             ....  0.380748821
Warning: the length of the step is outside the trust region - taking restricted step instead
The input lambda is                     ....    -0.021494
   iter:   1  x=   -0.036339  g=    3.702949 f(x)=     0.054970
   iter:   2  x=   -0.045148  g=    1.855405 f(x)=     0.016345
   iter:   3  x=   -0.046791  g=    1.379564 f(x)=     0.002266
   iter:   4  x=   -0.046834  g=    1.312916 f(x)=     0.000055
   iter:   5  x=   -0.046834  g=    1.311271 f(x)=     0.000000
   iter:   6  x=   -0.046834  g=    1.311270 f(x)=     0.000000
   iter:   7  x=   -0.046834  g=    1.311270 f(x)=     0.000000
The output lambda is                    ....    -0.046834 (7 iterations)
The final length of the internal step   ....  0.300000000
Converting the step to cartesian space:
 Initial RMS(Int)=    0.0397359707
Transforming coordinates:
 Iter   0:  RMS(Cart)=    0.0777099251 RMS(Int)=    0.0399551956
 Iter   1:  RMS(Cart)=    0.0028101275 RMS(Int)=    0.0017711276
 Iter   2:  RMS(Cart)=    0.0001210239 RMS(Int)=    0.0001086672
 Iter   3:  RMS(Cart)=    0.0000072415 RMS(Int)=    0.0000061863
 Iter   4:  RMS(Cart)=    0.0000006440 RMS(Int)=    0.0000004941
 Iter   5:  RMS(Cart)=    0.0000000336 RMS(Int)=    0.0000000324
done
Storing new coordinates                 .... done

                                .--------------------.
          ----------------------|Geometry convergence|-------------------------
          Item                value                   Tolerance       Converged
          ---------------------------------------------------------------------
          RMS gradient        0.0098689079            0.0001000000      NO
          MAX gradient        0.0363803529            0.0003000000      NO
          RMS step            0.0397359707            0.0020000000      NO
          MAX step            0.1251595793            0.0040000000      NO
          ........................................................
          Max(Bonds)      0.0412      Max(Angles)    4.49
          Max(Dihed)        7.17      Max(Improp)    0.00
          ---------------------------------------------------------------------

The optimization has not yet converged - more geometry cycles are needed


    ---------------------------------------------------------------------------
                         Redundant Internal Coordinates
                            (Angstroem and degrees)

        Definition                    Value    dE/dq     Step     New-Value
    ----------------------------------------------------------------------------
     1. B(C   1,C   0)                1.5100 -0.005208  0.0061    1.5162   
     2. B(C   2,C   0)                1.4979 -0.036380  0.0412    1.5391   
     3. B(C   3,C   0)                1.5181 -0.033517  0.0406    1.5587   
     4. B(H   4,C   0)                1.1169  0.006258 -0.0089    1.1080   
     5. B(H   5,C   1)                1.1187  0.008384 -0.0120    1.1067   
     6. B(H   6,C   1)                1.1150  0.006044 -0.0085    1.1065   
     7. B(H   7,C   2)                1.1183  0.009681 -0.0138    1.1045   
     8. B(H   8,C   2)                1.1200  0.007408 -0.0106    1.1094   
     9. B(H   9,C   2)                1.1071  0.001590 -0.0022    1.1049   
    10. B(H  10,C   3)                1.1024 -0.001045  0.0014    1.1038   
    11. B(H  11,C   3)                1.1090  0.002508 -0.0035    1.1055   
    12. B(H  12,C   3)                1.0982 -0.002775  0.0037    1.1019   
    13. A(C   1,C   0,H   4)          107.27 -0.004460   -0.03    107.24   
    14. A(C   2,C   0,H   4)          113.49  0.007853   -2.49    111.00   
    15. A(C   1,C   0,C   2)          113.08  0.008298   -1.56    111.52   
    16. A(C   1,C   0,C   3)          109.07  0.001980    0.56    109.63   
    17. A(C   2,C   0,C   3)          108.03 -0.015817    3.42    111.45   
    18. A(C   3,C   0,H   4)          105.57  0.001776    0.29    105.86   
    19. A(H   5,C   1,H   6)          111.02  0.006267    1.55    112.57   
    20. A(C   0,C   1,H   6)          111.79 -0.012610    3.23    115.03   
    21. A(C   0,C   1,H   5)          109.91 -0.020445    4.49    114.40   
    22. A(H   7,C   2,H   9)          109.61  0.002133   -0.92    108.69   
    23. A(C   0,C   2,H   9)          113.65  0.001159   -0.41    113.24   
    24. A(H   7,C   2,H   8)          105.27  0.002517    0.19    105.46   
    25. A(C   0,C   2,H   8)          107.33 -0.012460    2.28    109.61   
    26. A(H   8,C   2,H   9)          107.67  0.005746   -0.84    106.83   
    27. A(C   0,C   2,H   7)          112.81  0.000904   -0.19    112.62   
    28. A(H  11,C   3,H  12)          113.99  0.012901   -2.54    111.45   
    29. A(H  10,C   3,H  12)          112.01  0.012721   -2.06    109.95   
    30. A(C   0,C   3,H  12)          107.59 -0.014441    2.12    109.71   
    31. A(H  10,C   3,H  11)          107.00  0.005289   -0.35    106.65   
    32. A(C   0,C   3,H  11)          109.51 -0.004999    0.84    110.35   
    33. A(C   0,C   3,H  10)          106.48 -0.013498    2.36    108.85   
    34. D(H   6,C   1,C   0,C   3)    -71.64 -0.003880    3.46    -68.18   
    35. D(H   6,C   1,C   0,H   4)    174.47 -0.004630    2.87    177.34   
    36. D(H   6,C   1,C   0,C   2)     48.58 -0.017144    7.17     55.76   
    37. D(H   5,C   1,C   0,H   4)     50.72  0.010948   -4.65     46.07   
    38. D(H   5,C   1,C   0,C   2)    -75.16 -0.001566   -0.34    -75.51   
    39. D(H   5,C   1,C   0,C   3)    164.61  0.011698   -4.05    160.56   
    40. D(H   7,C   2,C   0,C   1)   -125.53  0.000670   -0.95   -126.48   
    41. D(H   9,C   2,C   0,C   1)      0.04  0.005316   -2.72     -2.68   
    42. D(H   8,C   2,C   0,H   4)     -3.52 -0.001904    0.73     -2.78   
    43. D(H   8,C   2,C   0,C   1)    118.97  0.004780   -2.47    116.49   
    44. D(H   7,C   2,C   0,H   4)    111.99 -0.006013    2.26    114.24   
    45. D(H   7,C   2,C   0,C   3)     -4.71 -0.002504    1.13     -3.59   
    46. D(H   9,C   2,C   0,C   3)    120.86  0.002142   -0.64    120.22   
    47. D(H   9,C   2,C   0,H   4)   -122.45 -0.001367    0.49   -121.95   
    48. D(H   8,C   2,C   0,C   3)   -120.22  0.001605   -0.39   -120.61   
    49. D(H  12,C   3,C   0,H   4)     85.11  0.001267   -1.77     83.34   
    50. D(H  12,C   3,C   0,C   1)    -29.88  0.004592   -2.15    -32.03   
    51. D(H  11,C   3,C   0,H   4)    -39.28 -0.002163   -0.53    -39.81   
    52. D(H  11,C   3,C   0,C   2)     82.44 -0.000298   -1.49     80.95   
    53. D(H  11,C   3,C   0,C   1)   -154.27  0.001162   -0.91   -155.18   
    54. D(H  10,C   3,C   0,H   4)   -154.64  0.001304   -1.80   -156.43   
    55. D(H  12,C   3,C   0,C   2)   -153.16  0.003132   -2.73   -155.90   
    56. D(H  10,C   3,C   0,C   2)    -32.91  0.003169   -2.76    -35.67   
    57. D(H  10,C   3,C   0,C   1)     90.37  0.004629   -2.18     88.20   
    ----------------------------------------------------------------------------

Time needed for optimization step       :     6.23 sec

         *************************************************************
         *                GEOMETRY OPTIMIZATION CYCLE   2            *
         *************************************************************
---------------------------------
CARTESIAN COORDINATES (ANGSTROEM)
---------------------------------
  C     -0.007827    0.060915    0.394046
  C     -0.298765    1.389383   -0.276290
  C      1.424762   -0.417147    0.097588
  C     -1.065243   -0.993882   -0.051852
  H     -0.160906    0.203044    1.482193
  H      0.167914    2.260233    0.222403
  H     -0.140023    1.401265   -1.371232
  H      1.453667   -1.440602   -0.316764
  H      2.004256   -0.464509    1.042427
  H      1.976885    0.255821   -0.582891
  H     -0.711270   -1.484119   -0.975350
  H     -1.160584   -1.788263    0.711053
  H     -2.030553   -0.496121   -0.237865

----------------------------
CARTESIAN COORDINATES (A.U.)
----------------------------
  NO LB      ZA    FRAG     MASS         X           Y           Z
   0 C     6.0000    0    12.011   -0.014792    0.115113    0.744640
   1 C     6.0000    0    12.011   -0.564584    2.625553   -0.522113
   2 C     6.0000    0    12.011    2.692410   -0.788294    0.184414
   3 C     6.0000    0    12.011   -2.013017   -1.878164   -0.097986
   4 H     1.0000    0     1.008   -0.304069    0.383698    2.800939
   5 H     1.0000    0     1.008    0.317312    4.271221    0.420280
   6 H     1.0000    0     1.008   -0.264604    2.648006   -2.591253
   7 H     1.0000    0     1.008    2.747032   -2.722343   -0.598598
   8 H     1.0000    0     1.008    3.787496   -0.877794    1.969901
   9 H     1.0000    0     1.008    3.735772    0.483431   -1.101505
  10 H     1.0000    0     1.008   -1.344106   -2.804579   -1.843144
  11 H     1.0000    0     1.008   -2.193187   -3.379327    1.343695
  12 H     1.0000    0     1.008   -3.837189   -0.937534   -0.449500

--------------------------------
INTERNAL COORDINATES (ANGSTROEM)
--------------------------------
 C      0   0   0     0.000000000000     0.00000000     0.00000000
 C      1   0   0     1.516186431236     0.00000000     0.00000000
 C      1   2   0     1.539072523679   111.44509323     0.00000000
 C      1   2   3     1.558701180377   109.65027467   236.08389834
 H      1   2   3     1.108014999452   107.17492622   121.57038070
 H      2   1   3     1.106735716721   114.16148782   284.38206646
 H      2   1   3     1.106452554708   114.79668685    55.86329684
 H      3   1   2     1.104528137307   112.60875085   233.55038192
 H      3   1   2     1.109404094865   109.59806778   116.52152480
 H      3   1   2     1.104888053429   113.23960088   357.35598684
 H      4   1   2     1.103846705651   108.80393146    88.22499123
 H      4   1   2     1.105511563959   110.32561045   204.85141396
 H      4   1   2     1.101902914102   109.68820875   327.98259971

---------------------------
INTERNAL COORDINATES (A.U.)
---------------------------
 C      0   0   0     0.000000000000     0.00000000     0.00000000
 C      1   0   0     2.865177123003     0.00000000     0.00000000
 C      1   2   0     2.908425569996   111.44509323     0.00000000
 C      1   2   3     2.945518355532   109.65027467   236.08389834
 H      1   2   3     2.093844901241   107.17492622   121.57038070
 H      2   1   3     2.091427407231   114.16148782   284.38206646
 H      2   1   3     2.090892308576   114.79668685    55.86329684
 H      3   1   2     2.087255686720   112.60875085   233.55038192
 H      3   1   2     2.096469911145   109.59806778   116.52152480
 H      3   1   2     2.087935829623   113.23960088   357.35598684
 H      4   1   2     2.085967967511   108.80393146    88.22499123
 H      4   1   2     2.089114093765   110.32561045   204.85141396
 H      4   1   2     2.082294733822   109.68820875   327.98259971


Diagonalization of the overlap matrix:
Smallest eigenvalue                        ... 2.139e-03
Time for diagonalization                   ...    0.001 sec
Threshold for overlap eigenvalues          ... 1.000e-08
Number of eigenvalues below threshold      ... 0
Time for construction of square roots      ...    7.392 sec
Total time needed                          ...    7.393 sec

-------------------
DFT GRID GENERATION
-------------------

General Integration Accuracy     IntAcc      ...  4.340
Radial Grid Type                 RadialGrid  ... Gauss-Chebyshev
Angular Grid (max. acc.)         AngularGrid ... Lebedev-110
Angular grid pruning method      GridPruning ... 3 (G Style)
Weight generation scheme         WeightScheme... Becke
Basis function cutoff            BFCut       ...    1.0000e-12
Integration weight cutoff        WCut        ...    1.0000e-14
Grids for H and He will be reduced by one unit

# of grid points (after initial pruning)     ...  13770 (   0.0 sec)
# of grid points (after weights+screening)   ...  12892 (   0.0 sec)
nearest neighbour list constructed           ...    0.0 sec
Grid point re-assignment to atoms done       ...    0.0 sec
Grid point division into batches done        ...    0.0 sec
Reduced shell lists constructed in    0.1 sec

Total number of grid points                  ...    12892
Total number of batches                      ...      210
Average number of points per batch           ...       61
Average number of grid points per atom       ...      992
Average number of shells per batch           ...    37.20 (88.58%)
Average number of basis functions per batch  ...    66.36 (89.68%)
Average number of large shells per batch     ...    32.65 (87.77%)
Average number of large basis fcns per batch ...    57.73 (87.00%)
Maximum spatial batch extension              ...  25.60, 21.70, 19.51 au
Average spatial batch extension              ...   4.11,  4.14,  3.89 au

Time for grid setup =    0.541 sec

--------------
SCF ITERATIONS
--------------
ITER       Energy         Delta-E        Max-DP      RMS-DP      [F,P]     Damp
               ***  Starting incremental Fock matrix formation  ***
  0   -157.5136672311   0.000000000000 0.00313138  0.00017474  0.0133641 0.7000
  1   -157.5143340484  -0.000666817217 0.00296921  0.00016086  0.0105329 0.7000
                               ***Turning on DIIS***
  2   -157.5148460773  -0.000512028972 0.00783823  0.00042320  0.0079701 0.0000
  3   -157.5161284281  -0.001282350780 0.00259626  0.00007826  0.0014330 0.0000
  4   -157.5161533008  -0.000024872689 0.00268299  0.00006725  0.0008539 0.0000
  5   -157.5161596647  -0.000006363922 0.00046806  0.00001480  0.0003774 0.0000
  6   -157.5161604984  -0.000000833725 0.00030716  0.00000755  0.0001276 0.0000
  7   -157.5161606277  -0.000000129281 0.00005057  0.00000191  0.0000411 0.0000
  8   -157.5161606393  -0.000000011557 0.00001861  0.00000076  0.0000186 0.0000
  9   -157.5161606419  -0.000000002603 0.00000603  0.00000022  0.0000036 0.0000
 10   -157.5161606421  -0.000000000177 0.00000112  0.00000006  0.0000008 0.0000
 11   -157.5161606421  -0.000000000023 0.00000042  0.00000002  0.0000006 0.0000
 12   -157.5161606421  -0.000000000004 0.00000040  0.00000002  0.0000002 0.0000
 13   -157.5161606421  -0.000000000004 0.00000016  0.00000001  0.0000001 0.0000
 14   -157.5161606421   0.000000000006 0.00000007  0.00000000  0.0000000 0.0000
                 **** Energy Check signals convergence ****

 Fermi smearing  (ALPHA): E(HOMO(Eh)) = -0.317393 MUE = -0.080814 gap=   7.589 eV
 Fermi smearing   (BETA): E(HOMO(Eh)) = -0.315396 MUE = -0.184910 gap=   7.061 eV

N_FOD(alpha) =  0.000000
 N_FOD(beta) =  0.000000
       N_FOD =  0.000000

               *****************************************************
               *                     SUCCESS                       *
               *           SCF CONVERGED AFTER  15 CYCLES          *
               *****************************************************

Setting up the final grid:

General Integration Accuracy     IntAcc      ...  4.670
Radial Grid Type                 RadialGrid  ... Gauss-Chebyshev
Angular Grid (max. acc.)         AngularGrid ... Lebedev-302
Angular grid pruning method      GridPruning ... 3 (G Style)
Weight generation scheme         WeightScheme... Becke
Basis function cutoff            BFCut       ...    1.0000e-12
Integration weight cutoff        WCut        ...    1.0000e-14
Grids for H and He will be reduced by one unit

# of grid points (after initial pruning)     ...  55394 (   0.0 sec)
# of grid points (after weights+screening)   ...  51268 (   0.1 sec)
nearest neighbour list constructed           ...    0.0 sec
Grid point re-assignment to atoms done       ...    0.0 sec
Grid point division into batches done        ...    0.1 sec
Reduced shell lists constructed in    0.3 sec

Total number of grid points                  ...    51268
Total number of batches                      ...      808
Average number of points per batch           ...       63
Average number of grid points per atom       ...     3944
Average number of shells per batch           ...    34.90 (83.10%)
Average number of basis functions per batch  ...    62.01 (83.80%)
Average number of large shells per batch     ...    29.94 (85.77%)
Average number of large basis fcns per batch ...    52.62 (84.85%)
Maximum spatial batch extension              ...  17.90, 17.31, 19.15 au
Average spatial batch extension              ...   2.64,  2.65,  2.56 au

Final grid set up in    2.8 sec
Final integration                            ... done (  12.7 sec)
Change in XC energy                          ...     0.000292589
Integrated number of electrons               ...    33.000034615
Previous integrated no of electrons          ...    33.002875104
Total Energy       :         -157.51586805 Eh           -4286.22468 eV
  Last Energy change         ...   -1.3188e-11  Tolerance :   1.0000e-09
  Last MAX-Density change    ...    4.8190e-08  Tolerance :   1.0000e-08
             **** THE GBW FILE WAS UPDATED (orca5.gbw) ****
             **** DENSITY FILE WAS UPDATED (orca5.scfp) ****
             **** ENERGY FILE WAS UPDATED (orca5.en.tmp) ****
             **** THE GBW FILE WAS UPDATED (orca5.gbw) ****
             **** DENSITY FILE WAS UPDATED (orca5.scfp) ****
Total SCF time: 0 days 0 hours 12 min 43 sec 


-------------------------------------------------------------------------------
                          DFT DISPERSION CORRECTION                            
                                                                               
                              DFTD3 V3.1  Rev 1                                
                          USING Becke-Johnson damping                          
-------------------------------------------------------------------------------
-------------------------   ----------------
Dispersion correction           -0.014403281
-------------------------   ----------------


-------------------------   --------------------
FINAL SINGLE POINT ENERGY      -157.530271334249
-------------------------   --------------------

------------------------------------------------------------------------------
                         ORCA SCF GRADIENT CALCULATION
------------------------------------------------------------------------------

Gradient of the Kohn-Sham DFT energy:
Kohn-Sham wavefunction type      ... UKS
Hartree-Fock exchange scaling    ...    0.200
Number of operators              ...    2
Number of atoms                  ...   13
Basis set dimensions             ...   74
Integral neglect threshold       ... 1.0e-12
Integral primitive cutoff        ... 1.0e-14

Nuclear repulsion gradient       ... done
One Electron Gradient            ... done
Pre-screening matrix             ... done
Starting the two electron gradient:
Two electron gradient done
Exchange-correlation gradient    ... done
Dispersion correction            ... done

------------------
CARTESIAN GRADIENT
------------------

   1   C   :    0.027166419   -0.002075820    0.005203951
   2   C   :   -0.028332334    0.003159983   -0.001326757
   3   C   :   -0.011971011    0.002719849   -0.014384866
   4   C   :   -0.012739503   -0.002933679   -0.001128344
   5   H   :   -0.004735965   -0.000346121    0.001088270
   6   H   :    0.008398571   -0.001567317    0.001105140
   7   H   :    0.008982760   -0.000750093   -0.000609292
   8   H   :    0.001687998   -0.001255029    0.002804635
   9   H   :   -0.001397322   -0.001433741    0.003264437
  10   H   :    0.001460082    0.000821364    0.001372014
  11   H   :    0.004902444   -0.000801833    0.003767229
  12   H   :    0.003514681   -0.000367553    0.000517095
  13   H   :    0.003063180    0.004829992   -0.001673512

Difference to translation invariance:
           :    0.0000000000    0.0000000000    0.0000000000

Norm of the cartesian gradient     ...    0.0491123717
RMS gradient                       ...    0.0078642734
MAX gradient                       ...    0.0283323341

-------
TIMINGS
-------

Total SCF gradient time            ...        4.537 sec

One electron gradient       ....       0.027 sec  (  0.6%)
Prescreening matrices       ....       0.025 sec  (  0.6%)
Two electron gradient       ....       1.344 sec  ( 29.6%)
XC gradient                 ....       2.460 sec  ( 54.2%)
------------------------------------------------------------------------------
                         ORCA GEOMETRY RELAXATION STEP
------------------------------------------------------------------------------

Reading the OPT-File                    .... done
Getting information on internals        .... done
Copying old internal coords+grads       .... done
Making the new internal coordinates     .... (new redundants).... done
Validating the new internal coordinates .... (new redundants).... done
Calculating the B-matrix                .... done
Calculating the G,G- and P matrices     .... done
Transforming gradient to internals      .... done
Projecting the internal gradient        .... done
Number of atoms                         ....  13
Number of internal coordinates          ....  57
Current Energy                          ....  -157.530271334 Eh
Current gradient norm                   ....     0.049112372 Eh/bohr
Maximum allowed component of the step   ....  0.300
Current trust radius                    ....  0.300
Updating the Hessian (BFGS)             .... done
Forming the augmented Hessian           .... done
Diagonalizing the augmented Hessian     .... done
Last element of RFO vector              ....  0.949889836
Lowest eigenvalues of augmented Hessian:
 -0.006359197  0.012004401  0.012877028  0.014021122  0.064201456
Length of the computed step             ....  0.329074863
Warning: the length of the step is outside the trust region - taking restricted step instead
The input lambda is                     ....    -0.006359
   iter:   1  x=   -0.009368  g=    6.078345 f(x)=     0.018290
   iter:   2  x=   -0.010020  g=    4.348937 f(x)=     0.002836
   iter:   3  x=   -0.010042  g=    4.078539 f(x)=     0.000090
   iter:   4  x=   -0.010042  g=    4.069901 f(x)=     0.000000
   iter:   5  x=   -0.010042  g=    4.069892 f(x)=     0.000000
   iter:   6  x=   -0.010042  g=    4.069892 f(x)=     0.000000
The output lambda is                    ....    -0.010042 (6 iterations)
The final length of the internal step   ....  0.300000000
Converting the step to cartesian space:
 Initial RMS(Int)=    0.0397359707
Transforming coordinates:
 Iter   0:  RMS(Cart)=    0.0415938784 RMS(Int)=    0.8223930766
 Iter   1:  RMS(Cart)=    0.0020669413 RMS(Int)=    0.0015539422
 Iter   2:  RMS(Cart)=    0.0001302294 RMS(Int)=    0.0001203840
 Iter   3:  RMS(Cart)=    0.0000099606 RMS(Int)=    0.0000087012
 Iter   4:  RMS(Cart)=    0.0000011578 RMS(Int)=    0.0000009247
 Iter   5:  RMS(Cart)=    0.0000000962 RMS(Int)=    0.0000000919
done
Storing new coordinates                 .... done

                                .--------------------.
          ----------------------|Geometry convergence|-------------------------
          Item                value                   Tolerance       Converged
          ---------------------------------------------------------------------
          Energy change      -0.0122784945            0.0000050000      NO
          RMS gradient        0.0033195271            0.0001000000      NO
          MAX gradient        0.0089271190            0.0003000000      NO
          RMS step            0.0397359707            0.0020000000      NO
          MAX step            0.1243828981            0.0040000000      NO
          ........................................................
          Max(Bonds)      0.0169      Max(Angles)    3.94
          Max(Dihed)        7.13      Max(Improp)    0.00
          ---------------------------------------------------------------------

The optimization has not yet converged - more geometry cycles are needed


    ---------------------------------------------------------------------------
                         Redundant Internal Coordinates
                            (Angstroem and degrees)

        Definition                    Value    dE/dq     Step     New-Value
    ----------------------------------------------------------------------------
     1. B(C   1,C   0)                1.5162  0.003202 -0.0058    1.5104   
     2. B(C   2,C   0)                1.5391 -0.008443  0.0169    1.5559   
     3. B(C   3,C   0)                1.5587 -0.000055  0.0016    1.5603   
     4. B(H   4,C   0)                1.1080  0.001679 -0.0041    1.1039   
     5. B(H   5,C   1)                1.1067  0.002810 -0.0068    1.0999   
     6. B(H   6,C   1)                1.1065  0.001879 -0.0045    1.1019   
     7. B(H   7,C   2)                1.1045  0.000155 -0.0007    1.1038   
     8. B(H   8,C   2)                1.1094  0.002114 -0.0052    1.1042   
     9. B(H   9,C   2)                1.1049  0.000382 -0.0009    1.1040   
    10. B(H  10,C   3)                1.1038 -0.001217  0.0027    1.1065   
    11. B(H  11,C   3)                1.1055  0.000312 -0.0008    1.1047   
    12. B(H  12,C   3)                1.1019 -0.000217  0.0006    1.1025   
    13. A(C   1,C   0,H   4)          107.17 -0.001031    0.43    107.61   
    14. A(C   2,C   0,H   4)          110.95  0.003287   -2.02    108.93   
    15. A(C   1,C   0,C   2)          111.45  0.001946   -0.82    110.62   
    16. A(C   1,C   0,C   3)          109.65 -0.001350    0.99    110.64   
    17. A(C   2,C   0,C   3)          111.48 -0.001733    0.62    112.10   
    18. A(C   3,C   0,H   4)          105.90 -0.001276    0.97    106.87   
    19. A(H   5,C   1,H   6)          112.15  0.002481    2.55    114.69   
    20. A(C   0,C   1,H   6)          114.80 -0.004999    2.87    117.67   
    21. A(C   0,C   1,H   5)          114.16 -0.008927    3.94    118.10   
    22. A(H   7,C   2,H   9)          108.68 -0.000142   -0.78    107.90   
    23. A(C   0,C   2,H   9)          113.24  0.002019   -0.83    112.41   
    24. A(H   7,C   2,H   8)          105.44 -0.000941    1.00    106.44   
    25. A(C   0,C   2,H   8)          109.60 -0.004803    1.70    111.30   
    26. A(H   8,C   2,H   9)          106.83  0.001052   -0.06    106.77   
    27. A(C   0,C   2,H   7)          112.61  0.002532   -0.79    111.82   
    28. A(H  11,C   3,H  12)          111.44  0.005593   -2.07    109.37   
    29. A(H  10,C   3,H  12)          109.90  0.005025   -1.41    108.49   
    30. A(C   0,C   3,H  12)          109.69 -0.005119    1.14    110.83   
    31. A(H  10,C   3,H  11)          106.61  0.001014    0.41    107.02   
    32. A(C   0,C   3,H  11)          110.33 -0.001865    0.55    110.88   
    33. A(C   0,C   3,H  10)          108.80 -0.004636    1.52    110.33   
    34. D(H   6,C   1,C   0,C   3)    -68.05 -0.006070    6.20    -61.85   
    35. D(H   6,C   1,C   0,H   4)    177.43 -0.003343    4.36    181.79   
    36. D(H   6,C   1,C   0,C   2)     55.86 -0.007899    7.13     62.99   
    37. D(H   5,C   1,C   0,H   4)     45.95  0.007035   -4.39     41.56   
    38. D(H   5,C   1,C   0,C   2)    -75.62  0.002479   -1.62    -77.24   
    39. D(H   5,C   1,C   0,C   3)    160.47  0.004308   -2.55    157.92   
    40. D(H   7,C   2,C   0,C   1)   -126.45 -0.000567   -0.02   -126.47   
    41. D(H   9,C   2,C   0,C   1)     -2.64  0.002849   -2.43     -5.07   
    42. D(H   8,C   2,C   0,H   4)     -2.83 -0.000002   -0.36     -3.19   
    43. D(H   8,C   2,C   0,C   1)    116.52  0.002172   -1.86    114.66   
    44. D(H   7,C   2,C   0,H   4)    114.20 -0.002740    1.48    115.68   
    45. D(H   7,C   2,C   0,C   3)     -3.57 -0.002160    1.12     -2.46   
[...]

             **** THE GBW FILE WAS UPDATED (orca5.gbw) ****
             **** DENSITY FILE WAS UPDATED (orca5.scfp) ****
             **** ENERGY FILE WAS UPDATED (orca5.en.tmp) ****
             **** THE GBW FILE WAS UPDATED (orca5.gbw) ****
             **** DENSITY FILE WAS UPDATED (orca5.scfp) ****
----------------
ORBITAL ENERGIES
----------------
                 SPIN UP ORBITALS
  NO   OCC          E(Eh)            E(eV) 
   0   1.0000     -10.187447      -277.2145 
   1   1.0000     -10.179817      -277.0069 
   2   1.0000     -10.169889      -276.7368 
   3   1.0000     -10.167761      -276.6788 
   4   1.0000      -0.793166       -21.5831 
   5   1.0000      -0.671088       -18.2612 
   6   1.0000      -0.661201       -17.9922 
   7   1.0000      -0.549727       -14.9588 
   8   1.0000      -0.462022       -12.5722 
   9   1.0000      -0.432208       -11.7610 
  10   1.0000      -0.420793       -11.4504 
  11   1.0000      -0.387026       -10.5315 
  12   1.0000      -0.377736       -10.2787 
  13   1.0000      -0.344582        -9.3766 
  14   1.0000      -0.339287        -9.2325 
  15   1.0000      -0.327586        -8.9141 
  16   1.0000      -0.202031        -5.4976 
  17   0.0000       0.059137         1.6092 
  18   0.0000       0.097826         2.6620 
  19   0.0000       0.105824         2.8796 
  20   0.0000       0.113265         3.0821 
  21   0.0000       0.122648         3.3374 
  22   0.0000       0.141420         3.8482 
  23   0.0000       0.145949         3.9715 
  24   0.0000       0.164618         4.4795 
  25   0.0000       0.174814         4.7569 
  26   0.0000       0.209195         5.6925 
  27   0.0000       0.245044         6.6680 
  28   0.0000       0.259742         7.0679 
  29   0.0000       0.397170        10.8075 
  30   0.0000       0.420542        11.4435 
  31   0.0000       0.427362        11.6291 
  32   0.0000       0.447864        12.1870 
  33   0.0000       0.473449        12.8832 
  34   0.0000       0.500133        13.6093 
  35   0.0000       0.575886        15.6707 
  36   0.0000       0.603690        16.4272 
  37   0.0000       0.640819        17.4376 
  38   0.0000       0.660896        17.9839 
  39   0.0000       0.664233        18.0747 
  40   0.0000       0.664962        18.0945 
  41   0.0000       0.695889        18.9361 
  42   0.0000       0.701742        19.0954 
  43   0.0000       0.705514        19.1980 
  44   0.0000       0.709953        19.3188 
  45   0.0000       0.721744        19.6397 
  46   0.0000       0.724959        19.7272 
  47   0.0000       0.738614        20.0987 
  48   0.0000       0.752116        20.4661 
  49   0.0000       0.755039        20.5457 
  50   0.0000       0.852865        23.2076 
  51   0.0000       0.937303        25.5053 
  52   0.0000       1.041919        28.3521 
  53   0.0000       1.089792        29.6547 
  54   0.0000       1.398464        38.0541 
  55   0.0000       1.524795        41.4918 
  56   0.0000       1.672299        45.5056 
  57   0.0000       1.741426        47.3866 
  58   0.0000       1.752414        47.6856 
  59   0.0000       1.818250        49.4771 
  60   0.0000       1.907412        51.9033 
  61   0.0000       1.935305        52.6623 
  62   0.0000       1.979693        53.8702 
  63   0.0000       2.015147        54.8349 
  64   0.0000       2.047760        55.7224 
  65   0.0000       2.076600        56.5071 
  66   0.0000       2.138791        58.1995 
  67   0.0000       2.146564        58.4110 
  68   0.0000       2.176329        59.2209 
  69   0.0000       2.422866        65.9295 
  70   0.0000       2.431755        66.1714 
  71   0.0000       2.500794        68.0501 
  72   0.0000       2.670526        72.6687 
  73   0.0000       2.679863        72.9228 

                 SPIN DOWN ORBITALS
  NO   OCC          E(Eh)            E(eV) 
   0   1.0000     -10.188356      -277.2393 
   1   1.0000     -10.168401      -276.6963 
   2   1.0000     -10.167536      -276.6727 
   3   1.0000     -10.165192      -276.6089 
   4   1.0000      -0.785778       -21.3821 
   5   1.0000      -0.669278       -18.2120 
   6   1.0000      -0.637358       -17.3434 
   7   1.0000      -0.541056       -14.7229 
   8   1.0000      -0.457472       -12.4484 
   9   1.0000      -0.429482       -11.6868 
  10   1.0000      -0.413914       -11.2632 
  11   1.0000      -0.383958       -10.4480 
  12   1.0000      -0.374426       -10.1886 
  13   1.0000      -0.337788        -9.1917 
  14   1.0000      -0.334716        -9.1081 
  15   1.0000      -0.325355        -8.8534 
  16   0.0000      -0.045088        -1.2269 
  17   0.0000       0.060708         1.6519 
  18   0.0000       0.099301         2.7021 
  19   0.0000       0.111773         3.0415 
  20   0.0000       0.116945         3.1822 
  21   0.0000       0.125189         3.4066 
  22   0.0000       0.142722         3.8837 
  23   0.0000       0.148044         4.0285 
  24   0.0000       0.165882         4.5139 
  25   0.0000       0.176655         4.8070 
  26   0.0000       0.212628         5.7859 
  27   0.0000       0.246784         6.7153 
  28   0.0000       0.268078         7.2948 
  29   0.0000       0.400220        10.8905 
  30   0.0000       0.424481        11.5507 
  31   0.0000       0.433845        11.8055 
  32   0.0000       0.452391        12.3102 
  33   0.0000       0.480990        13.0884 
  34   0.0000       0.546600        14.8737 
  35   0.0000       0.595147        16.1948 
  36   0.0000       0.613278        16.6882 
  37   0.0000       0.646188        17.5837 
  38   0.0000       0.664533        18.0829 
  39   0.0000       0.666219        18.1287 
  40   0.0000       0.673587        18.3292 
  41   0.0000       0.698356        19.0032 
  42   0.0000       0.703443        19.1417 
  43   0.0000       0.709638        19.3102 
  44   0.0000       0.714447        19.4411 
  45   0.0000       0.723875        19.6976 
  46   0.0000       0.729411        19.8483 
  47   0.0000       0.744454        20.2576 
  48   0.0000       0.754708        20.5366 
  49   0.0000       0.762291        20.7430 
  50   0.0000       0.858687        23.3661 
  51   0.0000       0.943357        25.6700 
  52   0.0000       1.043649        28.3991 
  53   0.0000       1.093283        29.7497 
  54   0.0000       1.409046        38.3421 
  55   0.0000       1.530114        41.6365 
  56   0.0000       1.722426        46.8696 
  57   0.0000       1.745468        47.4966 
  58   0.0000       1.775999        48.3274 
  59   0.0000       1.834417        49.9170 
  60   0.0000       1.921498        52.2866 
  61   0.0000       1.939022        52.7635 
  62   0.0000       1.988078        54.0983 
  63   0.0000       2.045958        55.6733 
  64   0.0000       2.078213        56.5510 
  65   0.0000       2.090063        56.8735 
  66   0.0000       2.142228        58.2930 
  67   0.0000       2.147805        58.4447 
  68   0.0000       2.183276        59.4100 
  69   0.0000       2.426815        66.0370 
  70   0.0000       2.443519        66.4915 
  71   0.0000       2.505462        68.1771 
  72   0.0000       2.678041        72.8732 
  73   0.0000       2.684206        73.0409 

                    ********************************
                    * MULLIKEN POPULATION ANALYSIS *
                    ********************************

------------------------------------------
FOD BASED MULLIKEN REDUCED ORBITAL CHARGES
------------------------------------------
  0 C s       :    -0.000000  s :    -0.000000
      pz      :     0.000000  p :     0.000000
      px      :     0.000000
      py      :     0.000000
      dz2     :     0.000000  d :     0.000000
      dxz     :     0.000000
      dyz     :     0.000000
      dx2y2   :     0.000000
      dxy     :     0.000000
  1 C s       :    -0.000000  s :    -0.000000
      pz      :     0.000000  p :     0.000000
      px      :     0.000000
      py      :     0.000000
      dz2     :     0.000000  d :     0.000000
      dxz     :     0.000000
      dyz     :     0.000000
      dx2y2   :     0.000000
      dxy     :     0.000000
  2 C s       :    -0.000000  s :    -0.000000
      pz      :     0.000000  p :     0.000000
      px      :     0.000000
      py      :     0.000000
      dz2     :     0.000000  d :     0.000000
      dxz     :     0.000000
      dyz     :     0.000000
      dx2y2   :     0.000000
      dxy     :     0.000000
  3 C s       :    -0.000000  s :    -0.000000
      pz      :     0.000000  p :     0.000000
      px      :     0.000000
      py      :     0.000000
      dz2     :     0.000000  d :     0.000000
      dxz     :     0.000000
      dyz     :     0.000000
      dx2y2   :     0.000000
      dxy     :     0.000000
  4 H s       :     0.000000  s :     0.000000
  5 H s       :     0.000000  s :     0.000000
  6 H s       :     0.000000  s :     0.000000
  7 H s       :     0.000000  s :     0.000000
  8 H s       :     0.000000  s :     0.000000
  9 H s       :     0.000000  s :     0.000000
 10 H s       :     0.000000  s :     0.000000
 11 H s       :     0.000000  s :     0.000000
 12 H s       :     0.000000  s :     0.000000


                     *******************************
                     * LOEWDIN POPULATION ANALYSIS *
                     *******************************

-------------------------------------------
LOEWDIN ATOMIC CHARGES AND SPIN POPULATIONS
-------------------------------------------
   0 C :   -0.160741   -0.012680
   1 C :   -0.221134    0.978209
   2 C :   -0.306202    0.050029
   3 C :   -0.308447    0.008558
   4 H :    0.113648    0.018391
   5 H :    0.111731   -0.025748
   6 H :    0.112786   -0.025982
   7 H :    0.108538    0.008514
   8 H :    0.110106    0.000086
   9 H :    0.109037    0.000132
  10 H :    0.109237   -0.000259
  11 H :    0.109556    0.000186
  12 H :    0.111887    0.000564

----------------------------------------------------
LOEWDIN REDUCED ORBITAL CHARGES AND SPIN POPULATIONS
----------------------------------------------------
CHARGE
  0 C s       :     2.876614  s :     2.876614
      pz      :     1.072782  p :     3.172853
      px      :     1.042170
      py      :     1.057902
      dz2     :     0.029759  d :     0.111275
      dxz     :     0.011971
      dyz     :     0.015865
      dx2y2   :     0.026390
      dxy     :     0.027289
  1 C s       :     3.018000  s :     3.018000
      pz      :     1.075885  p :     3.146177
      px      :     1.009769
      py      :     1.060523
      dz2     :     0.016243  d :     0.056957
      dxz     :     0.004428
      dyz     :     0.016667
      dx2y2   :     0.009575
      dxy     :     0.010043
  2 C s       :     2.963677  s :     2.963677
      pz      :     1.114847  p :     3.270051
      px      :     1.057772
      py      :     1.097432
      dz2     :     0.017913  d :     0.072474
      dxz     :     0.011448
      dyz     :     0.011158
      dx2y2   :     0.015873
      dxy     :     0.016082
  3 C s       :     2.956813  s :     2.956813
      pz      :     1.106396  p :     3.278871
      px      :     1.087370
      py      :     1.085105
      dz2     :     0.023058  d :     0.072764
      dxz     :     0.005583
      dyz     :     0.011143
      dx2y2   :     0.020930
      dxy     :     0.012050
  4 H s       :     0.886352  s :     0.886352
  5 H s       :     0.888269  s :     0.888269
  6 H s       :     0.887214  s :     0.887214
  7 H s       :     0.891462  s :     0.891462
  8 H s       :     0.889894  s :     0.889894
  9 H s       :     0.890963  s :     0.890963
 10 H s       :     0.890763  s :     0.890763
 11 H s       :     0.890444  s :     0.890444
 12 H s       :     0.888113  s :     0.888113

SPIN
  0 C s       :    -0.005122  s :    -0.005122
      pz      :    -0.006442  p :    -0.024025
      px      :    -0.003024
      py      :    -0.014559
      dz2     :     0.003688  d :     0.016467
      dxz     :     0.000472
      dyz     :     0.001324
      dx2y2   :     0.001175
      dxy     :     0.009808
  1 C s       :     0.040580  s :     0.040580
      pz      :     0.152456  p :     0.941466
      px      :     0.752782
      py      :     0.036229
      dz2     :    -0.000770  d :    -0.003837
      dxz     :    -0.001117
      dyz     :    -0.000477
      dx2y2   :    -0.001443
      dxy     :    -0.000030
  2 C s       :     0.016736  s :     0.016736
      pz      :     0.001715  p :     0.032822
      px      :     0.024197
      py      :     0.006910
      dz2     :    -0.000056  d :     0.000470
      dxz     :    -0.000156
      dyz     :     0.000365
      dx2y2   :     0.000360
      dxy     :    -0.000043
  3 C s       :     0.001848  s :     0.001848
      pz      :     0.002178  p :     0.006876
      px      :     0.000505
      py      :     0.004192
      dz2     :     0.000140  d :    -0.000166
      dxz     :    -0.000031
      dyz     :    -0.000015
      dx2y2   :    -0.000259
      dxy     :     0.000000
  4 H s       :     0.018391  s :     0.018391
  5 H s       :    -0.025748  s :    -0.025748
  6 H s       :    -0.025982  s :    -0.025982
  7 H s       :     0.008514  s :     0.008514
  8 H s       :     0.000086  s :     0.000086
  9 H s       :     0.000132  s :     0.000132
 10 H s       :    -0.000259  s :    -0.000259
 11 H s       :     0.000186  s :     0.000186
 12 H s       :     0.000564  s :     0.000564


                      *****************************
                      * MAYER POPULATION ANALYSIS *
                      *****************************

  NA   - Mulliken gross atomic population
  ZA   - Total nuclear charge
  QA   - Mulliken gross atomic charge
  VA   - Mayer's total valence
  BVA  - Mayer's bonded valence
  FA   - Mayer's free valence

  ATOM       NA         ZA         QA         VA         BVA        FA
  0 C      6.1010     6.0000    -0.1010     4.1917     4.1885     0.0032
  1 C      6.2348     6.0000    -0.2348     3.8886     2.9957     0.8929
  2 C      6.2267     6.0000    -0.2267     3.9346     3.9327     0.0019
  3 C      6.2430     6.0000    -0.2430     3.9565     3.9565     0.0001
  4 H      0.9281     1.0000     0.0719     0.9376     0.9372     0.0004
  5 H      0.8989     1.0000     0.1011     0.9495     0.9467     0.0028
  6 H      0.9006     1.0000     0.0994     0.9559     0.9531     0.0028
  7 H      0.9137     1.0000     0.0863     0.9577     0.9575     0.0002
  8 H      0.9102     1.0000     0.0898     0.9583     0.9583     0.0000
  9 H      0.9145     1.0000     0.0855     0.9649     0.9648     0.0000
 10 H      0.9122     1.0000     0.0878     0.9613     0.9613     0.0000
 11 H      0.9127     1.0000     0.0873     0.9575     0.9575     0.0000
 12 H      0.9037     1.0000     0.0963     0.9546     0.9546     0.0000

  Mayer bond orders larger than 0.100000
B(  0-C ,  1-C ) :   1.0800 B(  0-C ,  2-C ) :   1.0744 B(  0-C ,  3-C ) :   1.0916 
B(  0-C ,  4-H ) :   0.9126 B(  1-C ,  5-H ) :   0.9408 B(  1-C ,  6-H ) :   0.9414 
B(  2-C ,  7-H ) :   0.9535 B(  2-C ,  8-H ) :   0.9589 B(  2-C ,  9-H ) :   0.9582 
B(  3-C , 10-H ) :   0.9563 B(  3-C , 11-H ) :   0.9580 B(  3-C , 12-H ) :   0.9606 


-------
TIMINGS
-------

Total SCF time: 0 days 0 hours 1 min 1 sec 

Total time                  ....      61.838 sec
Sum of individual times     ....      47.304 sec  ( 76.5%)

Fock matrix formation       ....      40.784 sec  ( 66.0%)
  XC integration            ....      20.861 sec  ( 51.1% of F)
    Basis function eval.    ....       0.560 sec  (  2.7% of XC)
    Density eval.           ....       0.382 sec  (  1.8% of XC)
    XC-Functional eval.     ....       0.233 sec  (  1.1% of XC)
    XC-Potential eval.      ....       0.594 sec  (  2.8% of XC)
Diagonalization             ....       0.084 sec  (  0.1%)
Density matrix formation    ....       1.913 sec  (  3.1%)
Population analysis         ....       1.399 sec  (  2.3%)
Initial guess               ....       0.003 sec  (  0.0%)
Orbital Transformation      ....       0.000 sec  (  0.0%)
Orbital Orthonormalization  ....       0.002 sec  (  0.0%)
DIIS solution               ....       1.395 sec  (  2.3%)
Grid generation             ....       1.725 sec  (  2.8%)


-------------------------------------------------------------------------------
                          DFT DISPERSION CORRECTION                            
                                                                               
                              DFTD3 V3.1  Rev 1                                
                          USING Becke-Johnson damping                          
-------------------------------------------------------------------------------
The B3LYP functional is recognized
Active option DFTDOPT                   ...         4   

molecular C6(AA) [au] = 1132.632718 


            DFT-D V3
 parameters
 s6 scaling factor         :     1.0000 
 a1 scaling factor         :     0.3981 
 s8 scaling factor         :     1.9889 
 a2 scaling factor         :     4.4211 
 ad hoc parameters k1-k3   :    16.0000     1.3333    -4.0000 

 Edisp/kcal,au: -9.029926617391  -0.014390102504 
 E6   /kcal   :  -4.469534063 
 E8   /kcal   :  -4.560392554 
 % E8         :  50.503096511 

-------------------------   ----------------
Dispersion correction           -0.014390103
-------------------------   ----------------


-------------------------   --------------------
FINAL SINGLE POINT ENERGY      -157.545015406648
-------------------------   --------------------

                                *** OPTIMIZATION RUN DONE ***

                            ***************************************
                            *     ORCA property calculations      *
                            ***************************************

                                    ---------------------
                                    Active property flags
                                    ---------------------
   (+) Dipole Moment


------------------------------------------------------------------------------
                       ORCA ELECTRIC PROPERTIES CALCULATION
------------------------------------------------------------------------------

Dipole Moment Calculation                       ... on
Quadrupole Moment Calculation                   ... off
Polarizability Calculation                      ... off
GBWName                                         ... orca5.gbw
Electron density file                           ... orca5.scfp
The origin for moment calculation is the CENTER OF MASS  = ( 0.148436, -0.043955  0.072156)

-------------
DIPOLE MOMENT
-------------
                                X             Y             Z
Electronic contribution:     -0.38436       1.17432       0.40800
Nuclear contribution   :      0.44158      -1.24083      -0.36758
                        -----------------------------------------
Total Dipole Moment    :      0.05721      -0.06651       0.04042
                        -----------------------------------------
Magnitude (a.u.)       :      0.09660
Magnitude (Debye)      :      0.24553



--------------------
Rotational spectrum 
--------------------
 
Rotational constants in cm-1:     0.274546     0.261806     0.155063 
Rotational constants in MHz :  8230.693697  7848.743034  4648.683834 

 Dipole components along the rotational axes: 
x,y,z [a.u.] :    -0.036545     0.086195     0.023792 
x,y,z [Debye]:    -0.092889     0.219089     0.060475 

 

Timings for individual modules:

Sum of individual times         ...     8771.624 sec (= 146.194 min)
GTO integral calculation        ...      201.289 sec (=   3.355 min)   2.3 %
SCF iterations                  ...     8346.355 sec (= 139.106 min)  95.2 %
SCF Gradient evaluation         ...      132.364 sec (=   2.206 min)   1.5 %
Geometry relaxation             ...       91.616 sec (=   1.527 min)   1.0 %
                             ****ORCA TERMINATED NORMALLY****
TOTAL RUN TIME: 0 days 2 hours 31 minutes 12 seconds 907 msec
