36
Lattice="50.0 0.0 0.0 0.0 50.0 0.0 0.0 0.0 50.0" Properties=species:S:1:pos:R:3:momenta:R:3:xtb2_forces:R:3:xtb2_charges:R:1:dft_forces:R:3:ace_forces:R:3:forces:R:3 config_type=md compound=1953459455 mol_or_rad=mol rad_num=mol graph_name=1953459455_mol xtb2_config_type=xtb2_last_converged xtb2_n_steps=214 MD_time_fs=0.0 xtb2_energy=-1031.883017383389 xtb2_dipole="-0.08369535731246133 0.021539366595740902 0.027629643904603155" dft_energy=-12817.321842269197 dft_dipole="-0.34801592401945286 0.0775232667440353 0.08840194155270649" dataset_type=test ace_energy=-12819.569109233986 pbc="F F F"
C        4.59799838      -1.71595664      -0.33760161       0.25733430      -0.36161617      -0.52930982       0.00136475      -0.00000332      -0.00080091      -0.09515798       0.45865632      -0.05515331      -0.12763832       0.25315686      -0.04531210      -0.14422207       0.25315686      -0.04531210      -0.14422207
C        3.28132598      -1.68026350      -0.42402522      -0.27321303      -1.01692990      -1.63647956       0.00428086       0.00133901      -0.00160137      -0.02544421      -0.64515113      -0.13331356       0.34140261      -0.66322509       0.11033473       0.52878524      -0.66322509       0.11033473       0.52878524
C        2.36868235      -1.48111713       0.74414925      -0.04884293       0.95671904       0.25220936      -0.00167055       0.00388595       0.00423660      -0.05637717       0.17476089       0.45583748      -0.12166366       0.11841648       0.54395062      -0.25406068       0.11841648       0.54395062      -0.25406068
C        1.84048357      -0.04266463       0.85744485       0.09948912       0.64240030      -0.36034509      -0.00279823      -0.00094475       0.00419719      -0.06102130      -0.28892312      -0.46242933      -0.25122783      -0.29003219      -0.50474438      -0.55171558      -0.29003219      -0.50474438      -0.55171558
C        1.01485943       0.41879138      -0.35416970      -0.36810185       0.52926756       1.42423101       0.00320011       0.00352771      -0.00446482      -0.01834355       0.17268163       0.61368869       0.13729101       0.23760942       0.71294200       0.21781810       0.23760942       0.71294200       0.21781810
C        1.89300374       1.17586067      -1.35061840      -0.21605092      -0.67548104      -1.20942890      -0.00279993      -0.00406145       0.00225505      -0.10494100      -0.28765468      -0.41853719       0.16923977      -0.50140761      -0.62804723       0.38703774      -0.50140761      -0.62804723       0.38703774
C       -0.15232308       1.31583714       0.08475402       1.51740937       0.42373952       0.08199457       0.00310408       0.00046809      -0.00086432      -0.06311415      -0.03207207      -0.57875108       0.05183768       0.03254434      -0.83082486       0.00420642       0.03254434      -0.83082486       0.00420642
C       -1.29557180       0.55700104       0.77419761       1.39504681      -0.49851359       1.76661331       0.00024210       0.00092127      -0.00038639      -0.06685202      -0.01829261       0.29025280      -0.38904766      -0.03884844       0.24129127      -0.66122971      -0.03884844       0.24129127      -0.66122971
C       -2.53096314       0.25151170      -0.09504958      -1.17530706      -0.75608947      -0.62430245      -0.00117210       0.00187248      -0.00127021       0.02851790      -0.07804050      -0.08587853       0.10087976      -0.05889207      -0.06613786       0.09729711      -0.05889207      -0.06613786       0.09729711
C       -2.15033617      -0.52239579      -1.35803348      -0.19921831       0.49411327      -0.56294153       0.00126018      -0.00283769      -0.00105635      -0.10618872      -0.11323071       0.24024794       0.40202634      -0.10380289       0.38521325       0.62956127      -0.10380289       0.38521325       0.62956127
C       -3.48940179      -0.60858080       0.73672981      -0.35697597      -0.05747892       0.10822991      -0.00296191      -0.00071015      -0.00191312      -0.10880495       0.30670916       0.28223236      -0.27492552       0.49718165       0.45110119      -0.38330713       0.49718165       0.45110119      -0.38330713
C       -3.25250465       1.54449979      -0.48317583       0.29658730      -0.38178067       0.29125040       0.00153236      -0.00157133       0.00084442      -0.10769325       0.26408636      -0.39470990       0.10793805       0.43954387      -0.62564254       0.18230873       0.43954387      -0.62564254       0.18230873
H        5.22680938      -1.85085932      -1.20164654       0.03329981      -0.47373190      -0.41476842      -0.00107256      -0.00049660      -0.00013049       0.02981823       0.39481727      -0.07400637      -0.62585695       0.42149607      -0.08474599      -0.66275054       0.42149607      -0.08474599      -0.66275054
H        5.10607888      -1.61177414       0.60767949      -0.04314326       0.08150614       0.27847001      -0.00315585      -0.00103054      -0.00059773       0.03322953       0.30953504       0.06003961       0.68825497       0.28522627       0.11144828       0.72842739       0.28522627       0.11144828       0.72842739
H        2.79892977      -1.79431230      -1.38594173       0.22651916      -0.01174290      -0.00479156       0.00100437       0.00018390      -0.00201168       0.03066319      -0.17877314      -0.03925999      -0.57511435      -0.21851004      -0.03049967      -0.62648012      -0.21851004      -0.03049967      -0.62648012
H        1.51785584      -2.16211339       0.65653749      -0.03703732       0.05201202       0.12744788      -0.00192673      -0.00149965      -0.00122231       0.03193032      -0.36173638      -0.28586650       0.05458519      -0.38586856      -0.27476743      -0.01370280      -0.38586856      -0.27476743      -0.01370280
H        2.90419097      -1.72233459       1.66528757       0.22180646      -0.25611922      -0.33202424       0.00127649      -0.00077687       0.00257515       0.03376226       0.16656458      -0.17925182       0.37168783       0.23944661      -0.17919126       0.33899039       0.23944661      -0.17919126       0.33899039
H        2.68518787       0.63500017       0.99767027      -0.11601693      -0.09101751      -0.05122636      -0.00108583      -0.00030098       0.00007698       0.03384529       0.31757514       0.30300557       0.14254264       0.30049834       0.32751300       0.13494231       0.30049834       0.32751300       0.13494231
H        1.22701812       0.01046535       1.75937643      -0.18311195      -0.22705772       0.07001295       0.00333942       0.00014255      -0.00396330       0.03466032      -0.18829121       0.04376160       0.40593370      -0.26599088       0.11849093       0.40201267      -0.26599088       0.11849093       0.40201267
H        0.60415866      -0.46261648      -0.85386694      -0.08232768       0.23860866       0.15308521       0.00000280       0.00193751       0.00086630       0.03767346      -0.17757511      -0.31394025      -0.17882634      -0.16392115      -0.39604994      -0.15330829      -0.16392115      -0.39604994      -0.15330829
H        2.77362691       0.59474054      -1.61160660      -0.11726449       0.18288524      -0.00614417      -0.00239661       0.00048998       0.00149312       0.03818909       0.48682187      -0.19876833      -0.19399469       0.57885601      -0.36931082      -0.13503143       0.57885601      -0.36931082      -0.13503143
H        2.22307264       2.11932241      -0.91926037       0.00004368      -0.08024043       0.24476690      -0.00165694      -0.00023062       0.00017444       0.02932499       0.20446150       0.50915395       0.20992394       0.23602063       0.53805644       0.29297226       0.23602063       0.53805644       0.29297226
H        1.34080584       1.39337174      -2.26313633      -0.02905977       0.35400612       0.21012545       0.00069220       0.00043756       0.00062782       0.02775698      -0.25796277       0.16254556      -0.51094764      -0.28745497       0.16772032      -0.51819736      -0.28745497       0.16772032      -0.51819736
H       -0.53473234       1.84523570      -0.78800113       0.24747419      -0.13957386       0.00584502       0.00000541      -0.00082571      -0.00022913       0.03647685      -0.15152784       0.32855714      -0.33484003      -0.20939330       0.30390154      -0.36529593      -0.20939330       0.30390154      -0.36529593
H        0.24260359       2.07463987       0.76445783      -0.27401183       0.29270576       0.02939966       0.00074547      -0.00081858      -0.00132596       0.02659020       0.18236139       0.36980970       0.18828521       0.22495757       0.36960657       0.23461284       0.22495757       0.36960657       0.23461284
H       -1.63996544       1.13509590       1.63491064       0.43029325      -0.10080836       0.26062497      -0.00110006       0.00020279       0.00145215       0.02787949      -0.15155478       0.12749550       0.40829378      -0.19091297       0.17157554       0.39212394      -0.19091297       0.17157554       0.39212394
H       -0.91137424      -0.38970906       1.15945122      -0.37075726       0.05196687       0.18376428       0.00075054      -0.00182446       0.00065332       0.03532716       0.13501971      -0.39216261       0.27451189       0.15483979      -0.41719548       0.23277942       0.15483979      -0.41719548       0.23277942
H       -3.04405076      -0.77350840      -1.92605416      -0.08508052      -0.35953679      -0.10614976      -0.00029600      -0.00005985       0.00020970       0.03203851      -0.44734838      -0.15287471      -0.35308722      -0.48930328      -0.15019461      -0.32265428      -0.48930328      -0.15019461      -0.32265428
H       -1.49872802       0.06556401      -1.99843993      -0.02867069      -0.06781756       0.07259322       0.00109397       0.00090640       0.00046198       0.03746386       0.38528921       0.25891036      -0.41598937       0.46128979       0.32107702      -0.37265670       0.46128979       0.32107702      -0.37265670
H       -1.64240630      -1.44918400      -1.09962872      -0.13224688       0.08895985       0.26181070      -0.00076516       0.00154466      -0.00127744       0.03189635       0.30160601      -0.51675009       0.06325418       0.34340176      -0.46543045       0.09809362       0.34340176      -0.46543045       0.09809362
H       -3.01998356      -1.55007728       1.01370047       0.18577440       0.13223880       0.17530132       0.00299353      -0.00436650       0.00253535       0.03169892       0.22431141      -0.53612525       0.18329701       0.18755646      -0.52937084       0.17187135       0.18755646      -0.52937084       0.17187135
H       -3.77866126      -0.09016919       1.64833821      -0.34642551       0.08004209       0.06034108      -0.00022447       0.00203974       0.00174248       0.03154182      -0.18683103       0.24750081       0.52242736      -0.22552138       0.26100787       0.51344656      -0.22552138       0.26100787       0.51344656
H       -4.39104233      -0.83186118       0.17057003      -0.10565804       0.21337583      -0.02761194      -0.00162702       0.00178152       0.00005134       0.03434541      -0.53066264      -0.15783032      -0.26901018      -0.54091825      -0.16776603      -0.26949170      -0.54091825      -0.16776603      -0.26949170
H       -4.15332102       1.31730243      -1.04920549      -0.14908928       0.45956138       0.09742115      -0.00185030      -0.00094917      -0.00123556       0.03336505      -0.50523100      -0.06592491      -0.32167212      -0.51705708      -0.12924672      -0.30324572      -0.51705708      -0.12924672      -0.30324572
H       -2.62248533       2.18213502      -1.09772638       0.00604114       0.24761991       0.00584890       0.00147032       0.00140042      -0.00322825       0.03339129       0.30304905       0.39898804      -0.34787237       0.35344030       0.39961105      -0.34780773       0.35344030       0.39961105      -0.34780773
H       -3.53883969       2.10312096       0.40522594      -0.17950752       0.03380765      -0.29586345       0.00020128       0.00022668       0.00312596       0.03255182      -0.18984470       0.34829959       0.46557877      -0.21442208       0.35963657       0.49787042      -0.21442208       0.35963657       0.49787042
29
Lattice="50.0 0.0 0.0 0.0 50.0 0.0 0.0 0.0 50.0" Properties=species:S:1:pos:R:3:momenta:R:3:xtb2_forces:R:3:xtb2_charges:R:1:dft_forces:R:3:ace_forces:R:3:forces:R:3 config_type=md compound=1880257383 mol_or_rad=mol rad_num=mol graph_name=1880257383_mol xtb2_config_type=xtb2_last_converged xtb2_n_steps=90 MD_time_fs=1000.0 xtb2_energy=-887.355731049785 xtb2_dipole="0.09939323321593051 0.055951243870966186 0.012965516769201128" dft_energy=-11680.910243152872 dft_dipole="0.6409267849893752 0.08146297374250268 -0.02178276708184861" dataset_type=test ace_energy=-11681.841742939196 pbc="F F F"
C       -1.80163286      -2.92236839       1.83604136      -0.05651136       1.37369527       0.26947166      -1.01703233       0.26369937      -0.74961077      -0.09892564      -1.74860009       0.50441544      -0.47041976      -1.43840771       0.58953186      -0.31430318      -1.43840771       0.58953186      -0.31430318
C       -0.90350651      -2.88521958       0.89599331       0.07395124      -0.04884990      -0.02805200       0.69104669      -1.06505598       0.99815435      -0.02124652       0.76715179      -1.20303538       0.79734790       0.39914851      -0.41433722       0.41090037       0.39914851      -0.41433722       0.41090037
C        0.28368453      -3.24002231       0.45397578      -1.34246708      -0.24520789      -0.67073523       0.22596135       1.94371417      -0.09456807      -0.04627717       0.79982006       2.49281941      -0.53644786       1.19048461       2.23016879      -0.68760542       1.19048461       2.23016879      -0.68760542
C        1.45760688      -2.22459298       0.41212068      -0.94953454      -1.79975860       0.16005606      -1.12629905      -0.03691705      -1.67845126      -0.05620700      -1.32809611      -0.22856007      -2.00645952      -1.71671028      -0.15978813      -2.08344510      -1.71671028      -0.15978813      -2.08344510
C        1.34434659      -1.13834445      -0.78717684       0.99115616      -0.74643990      -0.04516582       1.80320992      -0.31999850       1.54764748      -0.05368332       1.76549476      -0.16034760       1.95850254       1.84347860      -0.22061853       2.32044918       1.84347860      -0.22061853       2.32044918
C        0.47765952       0.08367372      -0.47488088      -0.83546959       0.35239938      -0.06493201      -0.54886145      -0.18540691       0.92045736      -0.01917133      -0.27702167      -0.40814650       0.68691661      -0.23412515      -0.59046057       0.86939630      -0.23412515      -0.59046057       0.86939630
C        0.81823656       1.12943619       0.65668009       1.11869895       0.25253872       0.87641550       2.18275488      -0.14355224      -1.73055578      -0.07309689       2.52451343      -0.24026310      -1.89375437       2.42679024      -0.39141660      -2.42584706       2.42679024      -0.39141660      -2.42584706
C        0.46765254       2.28710385      -0.36098806       0.11352033       0.38206442      -0.70914982      -1.22929256      -0.64139271       2.30116585       0.02704063      -1.39062887      -0.33302993       2.45309472      -1.49341501      -0.22698625       2.55007101      -1.49341501      -0.22698625       2.55007101
C        1.50280801       3.40694678      -0.43883040       1.14009391      -0.74120642      -0.07661715       1.07103962       0.64436213       0.25161909      -0.10030631       0.86658225       0.24137407       0.20819501       1.03154220       0.24292272       0.23961761       1.03154220       0.24292272       0.23961761
C       -0.95470473       2.76465866       0.07944018       0.00575948       0.39953164      -0.40537931       0.86986330       1.11468240      -0.26696176      -0.10983295       1.43673539       1.06744645      -0.56598272       1.60962486       0.85454495      -0.67168844       1.60962486       0.85454495      -0.67168844
C        0.45344586       1.22656841      -1.42856485       0.00697150       0.10460306       0.35089359       0.55024536       0.93333728      -3.56298999      -0.05301081       0.42278350       0.84957558      -3.64448749       0.50196716       0.86950470      -3.47345553       0.50196716       0.86950470      -3.47345553
H       -2.86233046      -2.70343138       1.71980339      -0.02453226       0.06462502      -0.21702840       0.39509995       0.34698442      -0.16439743       0.03865959      -0.28396067       0.54252525      -0.24402421      -0.28432720       0.20624040      -0.26353878      -0.28432720       0.20624040      -0.26353878
H       -1.56003266      -3.25488695       2.81974835      -0.11268631       0.35442293      -0.04371307       0.27518931      -0.24747729       0.38568149       0.05017056       0.52161121      -0.57277040       1.07337315       0.48345681      -0.37794980       1.16845736       0.48345681      -0.37794980       1.16845736
H        0.36616448      -4.16629722      -0.09433832      -0.18871245       0.04154644       0.05932756       0.25225030       0.06397921      -0.01091362       0.04535605       0.31015010      -0.68191841      -0.18934345       0.37314356      -0.54151090      -0.25733293       0.37314356      -0.54151090      -0.25733293
H        1.57257206      -1.67013545       1.35092126      -0.21868949       0.19773221       0.20111184      -0.26641159      -0.24309285      -0.27336814       0.04363541      -0.10795569      -0.01149098       0.22652797      -0.11458526       0.04065543       0.30380306      -0.11458526       0.04065543       0.30380306
H        2.36094183      -2.80726679       0.21596520      -0.32926891       0.22792113       0.02029455      -0.04052352       0.11978677       0.10543343       0.03337280       0.39770422      -0.07222165       0.11361785       0.55920573      -0.20803053       0.06202472       0.55920573      -0.20803053       0.06202472
H        1.11754090      -1.57295361      -1.76134668      -0.02537637      -0.19622933      -0.14234765      -0.45083237      -0.16449588       0.31832883       0.03425184      -0.47806751      -0.41995009      -0.20419056      -0.57400729      -0.39547615      -0.18185468      -0.57400729      -0.39547615      -0.18185468
H        2.44221538      -0.86139497      -0.86984978      -0.01781070       0.39717874      -0.40541367      -1.09997698       0.37444692      -0.05484437       0.02263922      -0.89361772       0.48319354      -0.17036188      -1.00792135       0.52693648      -0.12298497      -1.00792135       0.52693648      -0.12298497
H       -0.59233280      -0.16921817      -0.38056995       0.02414074       0.05147443       0.24922088       0.42166322      -0.62827416       0.43704758       0.03614750       0.10214978      -0.68351890       0.46724629       0.02201600      -0.78129309       0.50832608       0.02201600      -0.78129309       0.50832608
H        1.93072562       1.21403370       0.88036203       0.00705519       0.19387586      -0.13029592      -1.33189112      -0.52242425      -0.01384714       0.02641741      -0.99998065      -0.53585160       0.10697406      -0.88773473      -0.45782411       0.09406808      -0.88773473      -0.45782411       0.09406808
H        0.22558785       1.02757985       1.52008306       0.02589334       0.04047606       0.51110115      -0.38822634       0.07942753       1.00460780       0.04119565      -0.79818520       0.06874038       1.68553938      -0.90671391       0.01677165       1.67149747      -0.90671391       0.01677165       1.67149747
H        1.35960984       3.98568430      -1.34135925       0.28003069      -0.34771273      -0.07481574       0.00688730      -0.03965063      -0.37636552       0.03532918       0.00260791       0.40122622      -0.82772778      -0.07806997       0.36144362      -0.93225785      -0.07806997       0.36144362      -0.93225785
H        2.60519262       3.17060996      -0.35186031      -0.24142422      -0.37824039       0.24198007      -1.20150676      -0.84469002      -0.68023084       0.02661020      -0.82055316      -0.86314032      -0.63850815      -0.84258603      -0.96619546      -0.60648620      -0.84258603      -0.96619546      -0.60648620
H        1.50100498       4.14648609       0.36310914       0.03101567      -0.06779431       0.09683945      -1.02261991      -0.10862093       0.34195829       0.03139525      -0.94994259       0.23731529       0.65654693      -1.01623988       0.21343975       0.74015871      -1.01623988       0.21343975       0.74015871
H       -0.81874241       3.35730195       0.96029413       0.05647050      -0.12373172       0.10383572       0.23369356       0.28482320       0.86639701       0.03293911       0.16960494       0.55270780       1.26199570       0.31649877       0.63418105       1.41057412       0.31649877       0.63418105       1.41057412
H       -1.70122608       2.04201316       0.32894411       0.14892747       0.35152928      -0.03745436       0.13489565      -0.98867187      -0.13756467       0.03994915      -0.40622375      -1.42498383       0.06873558      -0.42492635      -1.54275350       0.06397932      -0.42492635      -1.54275350       0.06397932
H       -1.44748997       3.45828824      -0.57771516       0.36026808      -0.07446686      -0.04929074       0.08341096       0.19088730      -0.94743218       0.02853915      -0.25004166       0.58864683      -1.19633463      -0.28921738       0.63077137      -1.33926514      -0.28921738       0.63077137      -1.33926514
H       -0.32801924       1.23294880      -2.25184229       0.22000125       0.30042069       0.13985863       0.32922113       0.09762980       1.14271677       0.01056102       0.18076523       0.11811279       0.87134125       0.05794926       0.11194681       0.89475496       0.05794926       0.11194681       0.89475496
H        1.37692559       1.33920477      -2.01411124      -0.26147120      -0.31639723      -0.18001579       0.19704149      -0.27803925       0.12088622       0.02754821       0.46835547      -0.30488706      -0.04958323       0.49368121      -0.25441872       0.05198694       0.49368121      -0.25441872       0.05198694
32
Lattice="50.0 0.0 0.0 0.0 50.0 0.0 0.0 0.0 50.0" Properties=species:S:1:pos:R:3:momenta:R:3:xtb2_forces:R:3:xtb2_charges:R:1:dft_forces:R:3:ace_forces:R:3:forces:R:3 config_type=md compound=1953473466 mol_or_rad=mol rad_num=mol graph_name=1953473466_mol xtb2_config_type=xtb2_last_converged xtb2_n_steps=94 MD_time_fs=1000.0 xtb2_energy=-973.5337084890014 xtb2_dipole="0.036630601843650516 -0.041942156032263866 -0.04254092085576783" dft_energy=-12748.862991937263 dft_dipole="0.18148069657456137 -0.33426507572157643 -0.2976893442970956" dataset_type=test ace_energy=-12751.065690367464 pbc="F F F"
C        0.33492514       3.52805358       0.88354636      -0.01257035       0.22542890      -0.69886619      -0.33825481      -1.74058246      -0.24580084      -0.10275949      -0.83892769      -1.44824754       0.00254069      -0.05974701      -1.62907222      -0.05647254      -0.05974701      -1.62907222      -0.05647254
C        1.30821245       2.71430091       0.48600117       0.26133864       0.37812317       0.29239768       0.65662510      -0.50732339       0.45821907      -0.01528460       1.65902319      -0.67480990       0.22100897       0.66313967      -0.32020837       0.47646586       0.66313967      -0.32020837       0.47646586
C        2.43191757       2.42999116      -0.42116596      -0.10621454       1.00979001       0.80466757       0.44108274       2.80295271      -0.79154448      -0.06118794       0.39078297       3.08964754      -0.51615745       0.72778222       2.29054594       0.12344615       0.72778222       2.29054594       0.12344615
C        2.35141000       1.57165999       0.76493955      -0.89587041       0.80302182       0.27026229      -2.94352673       0.94282428       0.77321319      -0.02197197      -3.23269035       0.47999289       0.80652750      -3.13319970       0.74638898      -0.14680358      -3.13319970       0.74638898      -0.14680358
C        1.85266696       0.13741893       0.66993108       0.22228735       0.07775666       0.54570787      -0.83650902      -0.20049779      -0.00385619      -0.05695094      -1.09208061       0.04803725      -0.16074491      -1.23818077       0.12561721      -0.27793288      -1.23818077       0.12561721      -0.27793288
C        0.75004387      -0.08270990      -0.44384825      -0.42095923      -1.00326929      -0.70510314       1.73780307       1.58166043      -0.57368091      -0.07082044       2.08338345       1.26275259      -0.66365230       2.46818196       0.82818589      -0.60812636       2.46818196       0.82818589      -0.60812636
C       -0.14067211      -1.31998958      -0.41392825       1.06558353       0.49314240      -0.72249831       1.62451057      -0.33555989      -0.08745901       0.01966467       1.87435588       0.04848592      -0.08691896       1.79203956      -0.36092198      -0.11295693       1.79203956      -0.36092198      -0.11295693
C        0.80816199      -2.60447991      -0.25660783       0.67246616      -0.38849728      -0.40059845      -0.29133620       1.22598038      -1.87911635      -0.11375967      -0.71748766       1.43905582      -2.16167915      -0.93865389       1.94250694      -2.05041608      -0.93865389       1.94250694      -2.05041608
C       -1.10144343      -1.11682480       0.74424262      -0.06702323       0.34788204      -1.15619847      -0.88039782      -0.37486054      -0.18891819      -0.07442206      -1.01623350      -0.57160138      -0.42541783      -1.02847615      -0.79134654      -0.49739244      -1.02847615      -0.79134654      -0.49739244
C       -2.55728550      -1.34148479       0.24401344      -0.28471254      -0.39987361       0.75280119       1.02201425      -1.98165723       0.38925902      -0.05855012       1.17891442      -2.31241430       0.34823030       1.48242311      -2.26724702       0.16107678       1.48242311      -2.26724702       0.16107678
C       -2.37929835      -1.77962137      -1.20761370       0.07670106      -0.73635364      -0.52179448      -0.59064753      -0.44166625      -0.03667200      -0.05557484      -0.36290628      -0.21795265       0.04743624      -0.24415162      -0.20408865       0.12727281      -0.24415162      -0.20408865       0.12727281
C       -1.04051383      -1.27780512      -1.67116125      -0.14442815       0.71441304       0.90948401       0.28961123       0.45717832       0.25835312      -0.05989302       0.02467720       0.29457503       0.53507017       0.14559328       0.17672540       0.73764426       0.14559328       0.17672540       0.73764426
H       -0.14372513       4.29756268       0.27012301      -0.09524127       0.17796653      -0.02243614       0.63967618      -0.22445775       0.20866695       0.03368962       0.37894882       0.32660571      -0.20625796       0.41309242       0.23483500      -0.23023126       0.41309242       0.23483500      -0.23023126
H       -0.30417449       3.15638000       1.69987243      -0.44729677      -0.27367189       0.38939466       0.43037589       0.58810716      -0.08174311       0.02558115       0.15652482       0.41924135       0.38368064       0.05001922       0.26445285       0.29848902       0.05001922       0.26445285       0.29848902
H        3.20004849       3.20677150      -0.25450637       0.06487606      -0.03867865      -0.44906432      -0.04806195      -0.32974121      -0.78525131       0.03200326       0.16087035      -0.07089389      -0.72371049       0.32169618      -0.00048360      -0.63725647       0.32169618      -0.00048360      -0.63725647
H        2.19338476       2.27557786      -1.47230387       0.15789313       0.09879383      -0.22756857       0.36358111      -0.59861611       0.44259226       0.04466191       0.24132302      -0.82855520      -0.22707550      -0.08378041      -0.64407397      -0.21582959      -0.08378041      -0.64407397      -0.21582959
H        2.98391730       1.92549475       1.59233666      -0.14289315      -0.02641898       0.11463385      -0.05855847      -0.96855344      -0.36480448       0.03531468       0.29370681      -0.81486971      -0.04509922       0.29234845      -0.62563055       0.03848743       0.29234845      -0.62563055       0.03848743
H        1.30639554      -0.16094627       1.59621165       0.19069746      -0.27079264       0.18864381       0.80501884       0.18272248      -0.34933360       0.03466990       0.74503668       0.05894033       0.01241129       0.61817206       0.09210652       0.06067282       0.61817206       0.09210652       0.06067282
H        2.75666143      -0.40989568       0.53267412      -0.25974517      -0.03474743      -0.27897206       0.46102873      -1.01113040      -0.05780144       0.03649735       0.89806339      -1.43895951      -0.05446991       0.89944478      -1.51721971      -0.06735439       0.89944478      -1.51721971      -0.06735439
H        1.11262568       0.12025056      -1.51729300       0.10451415      -0.03893892       0.39643276      -0.07546236      -0.41057942       1.57514015       0.01461323      -0.02006611      -0.24633373       1.31059671      -0.10919770      -0.20250367       1.36665713      -0.10919770      -0.20250367       1.36665713
H        0.17566842       0.77376183      -0.12341710      -0.18884260      -0.39205866      -0.04234026      -0.86685978       0.38726183      -0.82353602       0.04964374      -1.15363921       0.58722586      -0.83172975      -1.36312903       0.58548768      -0.83983699      -1.36312903       0.58548768      -0.83983699