5
Properties=species:S:1:pos:R:3 smiles=C config_type=methane_mol dft_normal_mode_energy=0.04043763491921539 dft_normal_mode_temperature=300.0 pbc="F F F"
C       -0.00550444       0.00453635      -0.00659225
H       -0.67440084       0.85478730      -0.08047735
H       -0.40107998      -0.86455406      -0.55828912
H        0.13234676      -0.30987924       1.04179404
H        1.00565232       0.26692380      -0.32341633
5
Properties=species:S:1:pos:R:3 smiles=C config_type=methane_mol dft_normal_mode_energy=0.22048103625803253 dft_normal_mode_temperature=300.0 pbc="F F F"
C       -0.00288992       0.00673045       0.01609493
H       -0.62937464       0.91258898      -0.15163222
H       -0.30951985      -0.87622563      -0.61708821
H        0.07177995      -0.37169216       1.05611860
H        0.89847992       0.25646142      -0.47813079
5
Properties=species:S:1:pos:R:3 smiles=C config_type=methane_mol dft_normal_mode_energy=0.1614892847184422 dft_normal_mode_temperature=300.0 pbc="F F F"
C        0.00578696      -0.00037052      -0.00372074
H       -0.64786658       0.88106206      -0.04358991
H       -0.37745680      -0.86925254      -0.51170131
H       -0.02937903      -0.33627097       1.06154780
H        0.98266926       0.33020883      -0.46086299
5
Properties=species:S:1:pos:R:3 smiles=C config_type=methane_mol dft_normal_mode_energy=0.08048219527350114 dft_normal_mode_temperature=300.0 pbc="F F F"
C        0.00437471       0.00030727       0.00004827
H       -0.73668638       0.80485520      -0.09195331
H       -0.42093262      -0.77488061      -0.59332718
H        0.08554601      -0.27800844       1.07092798
H        1.01686900       0.24570446      -0.38516632
5
Properties=species:S:1:pos:R:3 smiles=C config_type=methane_mol dft_normal_mode_energy=0.14089900810532002 dft_normal_mode_temperature=300.0 pbc="F F F"
C       -0.00098089       0.01234526      -0.01788130
H       -0.67821785       0.85284061      -0.03508944
H       -0.42143550      -0.92393226      -0.49669817
H        0.09316939      -0.34817742       1.04687516
H        1.01509919       0.27349586      -0.30095512
5
Properties=species:S:1:pos:R:3 smiles=C config_type=methane_mol dft_normal_mode_energy=0.09509103987584094 dft_normal_mode_temperature=300.0 pbc="F F F"
C        0.00976144       0.00302124       0.01375469
H       -0.68048711       0.82063367      -0.14568756
H       -0.43413029      -0.82648252      -0.61176404
H        0.04213456      -0.32376133       1.03996086
H        0.95309117       0.29494287      -0.44535356
5
Properties=species:S:1:pos:R:3 smiles=C config_type=methane_mol dft_normal_mode_energy=0.12457615461274385 dft_normal_mode_temperature=300.0 pbc="F F F"
C       -0.00768724      -0.00192530       0.00835536
H       -0.62406417       0.85727604      -0.11003524
H       -0.38430313      -0.84957796      -0.58689505
H        0.07828876      -0.30701365       1.02954573
H        1.01860447       0.32359103      -0.43112011
5
Properties=species:S:1:pos:R:3 smiles=C config_type=methane_mol dft_normal_mode_energy=0.10387279077141816 dft_normal_mode_temperature=300.0 pbc="F F F"
C       -0.00117367       0.00926464       0.00079938
H       -0.70465468       0.88912998      -0.10504390
H       -0.40545457      -0.90541479      -0.54015464
H        0.08604397      -0.37170183       1.02362319
H        1.03497696       0.27892047      -0.38689187
5
Properties=species:S:1:pos:R:3 smiles=C config_type=methane_mol dft_normal_mode_energy=0.1017706896698632 dft_normal_mode_temperature=300.0 pbc="F F F"
C        0.00373279       0.00197805       0.00109446
H       -0.67171814       0.84846579      -0.12919714
H       -0.39870977      -0.81434239      -0.56676281
H        0.08957594      -0.33392018       1.06566973
H        0.93329969       0.27755926      -0.38169599
5
Properties=species:S:1:pos:R:3 smiles=C config_type=methane_mol dft_normal_mode_energy=0.1318179439306085 dft_normal_mode_temperature=300.0 pbc="F F F"
C       -0.00218826       0.00226893      -0.01346459
H       -0.71831642       0.88505646      -0.08828656
H       -0.43860800      -0.86681936      -0.52844725
H        0.14119352      -0.33324780       1.07547630
H        1.03873317       0.28930603      -0.29724131
5
Properties=species:S:1:pos:R:3 smiles=C config_type=methane_mol dft_normal_mode_energy=0.21818289387590037 dft_normal_mode_temperature=300.0 pbc="F F F"
C       -0.00902854       0.00984770      -0.01828298
H       -0.68012000       0.88548368       0.01876772
H       -0.37126425      -0.94315618      -0.48321504
H        0.07910171      -0.32133635       1.00661720
H        1.07679256       0.26299489      -0.32324877
5
Properties=species:S:1:pos:R:3 smiles=C config_type=methane_mol dft_normal_mode_energy=0.12161645402476076 dft_normal_mode_temperature=300.0 pbc="F F F"
C       -0.00935496      -0.00238174      -0.00348232
H       -0.66435400       0.85483631      -0.12005490
H       -0.39088150      -0.80071812      -0.54109379
H        0.14504492      -0.31741361       1.04637155
H        1.01859046       0.29300813      -0.34267085
5
Properties=species:S:1:pos:R:3 smiles=C config_type=methane_mol dft_normal_mode_energy=0.04726864857605118 dft_normal_mode_temperature=300.0 pbc="F F F"
C        0.00186283       0.00251492      -0.00257258
H       -0.67962061       0.83499477      -0.07565168
H       -0.41361586      -0.84387152      -0.55996791
H        0.04996968      -0.31615455       1.07592730
H        1.01799372       0.29639659      -0.40859605
5
Properties=species:S:1:pos:R:3 smiles=C config_type=methane_mol dft_normal_mode_energy=0.0621781959795092 dft_normal_mode_temperature=300.0 pbc="F F F"
C        0.00108811       0.00035020       0.00679794
H       -0.65222374       0.83349599      -0.08449930
H       -0.39304212      -0.84300183      -0.61988032
H        0.05970637      -0.27530108       1.04576934
H        0.96951967       0.28196832      -0.42133649
5
Properties=species:S:1:pos:R:3 smiles=C config_type=methane_mol dft_normal_mode_energy=0.16984236680832943 dft_normal_mode_temperature=300.0 pbc="F F F"
C       -0.00668480      -0.00443387       0.00854200
H       -0.63242065       0.87526646      -0.18626420
H       -0.42293134      -0.82696750      -0.59109587
H        0.17523405      -0.31948976       1.00921912
H        0.95670265       0.32535874      -0.33258823
5
Properties=species:S:1:pos:R:3 smiles=C config_type=methane_mol dft_normal_mode_energy=0.1279948597819664 dft_normal_mode_temperature=300.0 pbc="F F F"
C        0.00437376       0.00816338       0.00544407
H       -0.68144919       0.80350699      -0.12043591
H       -0.45901289      -0.86310453      -0.56791875
H        0.06255820      -0.34000022       1.02396752
H        1.02271042       0.30365653      -0.39942602
5
Properties=species:S:1:pos:R:3 smiles=C config_type=methane_mol dft_normal_mode_energy=0.09522524639780898 dft_normal_mode_temperature=300.0 pbc="F F F"
C       -0.00401474       0.00781710      -0.00471289
H       -0.70436546       0.84120388      -0.00385507
H       -0.35244066      -0.87520867      -0.58885336
H        0.06240781      -0.27061280       1.04692627
H        1.03916355       0.21280127      -0.39700038
5
Properties=species:S:1:pos:R:3 smiles=C config_type=methane_mol dft_normal_mode_energy=0.0833579091427496 dft_normal_mode_temperature=300.0 pbc="F F F"
C        0.00625553      -0.00387299       0.00357912
H       -0.72685347       0.84233782      -0.11329340
H       -0.41366612      -0.77888545      -0.62715134
H        0.08471542      -0.27761994       1.10640714
H        0.97818951       0.26165091      -0.40755650
5
Properties=species:S:1:pos:R:3 smiles=C config_type=methane_mol dft_normal_mode_energy=0.07876884558920177 dft_normal_mode_temperature=300.0 pbc="F F F"
C        0.00154073       0.00147557       0.00408835
H       -0.73345726       0.80446306      -0.08529806
H       -0.40754711      -0.79093991      -0.63655874
H        0.09616638      -0.25705966       1.07151622
H        1.02340394       0.22728641      -0.39731961
5
Properties=species:S:1:pos:R:3 smiles=C config_type=methane_mol dft_normal_mode_energy=0.04064774011202524 dft_normal_mode_temperature=300.0 pbc="F F F"
C       -0.00105828      -0.00339004      -0.00597011
H       -0.69870836       0.84732649      -0.07441478
H       -0.42016120      -0.81829431      -0.58867248
H        0.12412379      -0.26064097       1.06354158
H        1.00428314       0.27333773      -0.32825703
5
Properties=species:S:1:pos:R:3 smiles=C config_type=methane_mol dft_normal_mode_energy=0.07450767843625247 dft_normal_mode_temperature=300.0 pbc="F F F"
C        0.00156047      -0.00464185      -0.00408358
H       -0.69682124       0.88426814      -0.01959520
H       -0.39443110      -0.86806754      -0.61148450
H        0.07236223      -0.22885471       1.04664519
H        0.99722285       0.26929984      -0.36584638
5
Properties=species:S:1:pos:R:3 smiles=C config_type=methane_mol dft_normal_mode_energy=0.04893449164138899 dft_normal_mode_temperature=300.0 pbc="F F F"
C       -0.00375040       0.00850732      -0.00486134
H       -0.67735670       0.84108745      -0.04554614
H       -0.37741121      -0.88238028      -0.58722148
H        0.08772788      -0.29974240       1.06740513
H        1.00865630       0.24099550      -0.37565227
5
Properties=species:S:1:pos:R:3 smiles=C config_type=methane_mol dft_normal_mode_energy=0.0813690958782492 dft_normal_mode_temperature=300.0 pbc="F F F"
C       -0.00386374      -0.00479833      -0.00874027
H       -0.65326385       0.84595927      -0.01659047
H       -0.37126291      -0.82761070      -0.58113773
H        0.07021637      -0.23863665       1.07715370
H        0.99727666       0.27879884      -0.37421884
5
Properties=species:S:1:pos:R:3 smiles=C config_type=methane_mol dft_normal_mode_energy=0.20125025960674428 dft_normal_mode_temperature=300.0 pbc="F F F"
C        0.00363824       0.00656962      -0.00040304
H       -0.71023179       0.84909323       0.01569902
H       -0.35921685      -0.89546622      -0.62780711
H       -0.00022708      -0.25428423       1.07570927
H        1.02324745       0.22370685      -0.45774027
5
Properties=species:S:1:pos:R:3 smiles=C config_type=methane_mol dft_normal_mode_energy=0.04973293093923277 dft_normal_mode_temperature=300.0 pbc="F F F"
C        0.00392133      -0.00227744       0.00548595
H       -0.68840595       0.84014586      -0.12306642
H       -0.40679559      -0.79674695      -0.62005886
H        0.09031311      -0.28820119       1.08040228
H        0.95508866       0.27327373      -0.40159218
5
Properties=species:S:1:pos:R:3 smiles=C config_type=methane_mol dft_normal_mode_energy=0.1558226871578058 dft_normal_mode_temperature=300.0 pbc="F F F"
C       -0.01363523       0.00725580       0.00441408
H       -0.70229483       0.85574498      -0.12663592
H       -0.34605905      -0.82354093      -0.59040987
H        0.19171430      -0.31581177       1.00075062
H        1.01604542       0.19847838      -0.33524534
5
Properties=species:S:1:pos:R:3 smiles=C config_type=methane_mol dft_normal_mode_energy=0.09602479379310166 dft_normal_mode_temperature=300.0 pbc="F F F"
C       -0.00599636       0.00082186       0.00558650
H       -0.67288509       0.93036177      -0.13433460
H       -0.37933338      -0.88889801      -0.59750209
H        0.13135284      -0.34014118       1.05092632
H        0.98924660       0.29021650      -0.38460170
5
Properties=species:S:1:pos:R:3 smiles=C config_type=methane_mol dft_normal_mode_energy=0.17346249171851366 dft_normal_mode_temperature=300.0 pbc="F F F"
C        0.00116707       0.00559997      -0.00359242
H       -0.67823741       0.88305026      -0.14758841
H       -0.45944239      -0.88921139      -0.49221594
H        0.10012783      -0.40392225       1.03120033
H        1.02057107       0.34468609      -0.34753101
5
Properties=species:S:1:pos:R:3 smiles=C config_type=methane_mol dft_normal_mode_energy=0.15025168313728693 dft_normal_mode_temperature=300.0 pbc="F F F"
C        0.01149108      -0.00267048       0.01456316
H       -0.72464744       0.81892434      -0.19266809
H       -0.49316093      -0.78436427      -0.60306222
H        0.07992093      -0.32531836       1.03553349
H        0.99788446       0.32391261      -0.41228123
5
Properties=species:S:1:pos:R:3 smiles=C config_type=methane_mol dft_normal_mode_energy=0.0795770033830572 dft_normal_mode_temperature=300.0 pbc="F F F"
C        0.00019421      -0.00095377      -0.00771276
H       -0.68549388       0.82249284      -0.07301072
H       -0.45274582      -0.83390558      -0.55784401
H        0.08933671      -0.28897851       1.07391368
H        1.04351320       0.31309012      -0.35009609
5
Properties=species:S:1:pos:R:3 smiles=C config_type=methane_mol dft_normal_mode_energy=0.13369392391454687 dft_normal_mode_temperature=300.0 pbc="F F F"
C        0.00901705       0.00006420       0.00602518
H       -0.68143841       0.80937270      -0.06756564
H       -0.38041509      -0.79519210      -0.60750054
H        0.00639023      -0.27064818       1.06283981
H        0.94494150       0.25703592      -0.45851323
5
Properties=species:S:1:pos:R:3 smiles=C config_type=methane_mol dft_normal_mode_energy=0.0826905364315499 dft_normal_mode_temperature=300.0 pbc="F F F"
C        0.00012967       0.00322830      -0.00522148
H       -0.70189182       0.90006610      -0.09604917
H       -0.38209327      -0.85932132      -0.55585334
H        0.10730376      -0.33851721       1.07361950
H        0.97206448       0.26063565      -0.35844176
5
Properties=species:S:1:pos:R:3 smiles=C config_type=methane_mol dft_normal_mode_energy=0.0979605772127388 dft_normal_mode_temperature=300.0 pbc="F F F"
C       -0.00028016       0.01651914       0.00125556
H       -0.73086908       0.84443673      -0.10733346
H       -0.37280927      -0.86296958      -0.52487236
H        0.07924266      -0.39247886       1.02070888
H        1.02470003       0.21549935      -0.40240707
5
Properties=species:S:1:pos:R:3 smiles=C config_type=methane_mol dft_normal_mode_energy=0.1130141801386705 dft_normal_mode_temperature=300.0 pbc="F F F"
C       -0.01390781      -0.00587337      -0.00596532
H       -0.64685389       0.86775393      -0.02601146
H       -0.34286881      -0.83258389      -0.59369254
H        0.11928307      -0.23177436       1.05445898
H        1.03309142       0.26792454      -0.36261407
5
Properties=species:S:1:pos:R:3 smiles=C config_type=methane_mol dft_normal_mode_energy=0.1192470115468331 dft_normal_mode_temperature=300.0 pbc="F F F"
C       -0.00276835      -0.01011723      -0.00633138
H       -0.62443275       0.90425943      -0.08700300
H       -0.45245333      -0.88345918      -0.55213298
H        0.10722675      -0.28297519       1.03928391
H        0.99957380       0.38406677      -0.32364417
5
Properties=species:S:1:pos:R:3 smiles=C config_type=methane_mol dft_normal_mode_energy=0.1536282261569087 dft_normal_mode_temperature=300.0 pbc="F F F"
C       -0.00446008       0.00561563      -0.00864269
H       -0.69096188       0.87514945      -0.08498300
H       -0.41884948      -0.88764890      -0.53781763
H        0.15983761      -0.31620131       0.99778821
H        1.00004913       0.26311735      -0.27094156
5
Properties=species:S:1:pos:R:3 smiles=C config_type=methane_mol dft_normal_mode_energy=0.07820620467880451 dft_normal_mode_temperature=300.0 pbc="F F F"
C        0.00716332       0.00023710       0.00228761
H       -0.70651147       0.82606994      -0.09065870
H       -0.40206073      -0.79476144      -0.57785467
H        0.05854600      -0.28872414       1.03858143
H        0.96159454       0.25592262      -0.39627010
5
Properties=species:S:1:pos:R:3 smiles=C config_type=methane_mol dft_normal_mode_energy=0.18985153023992463 dft_normal_mode_temperature=300.0 pbc="F F F"
C       -0.00850628       0.01257403       0.00194050
H       -0.74835415       0.81977001      -0.06567708
H       -0.36031030      -0.84683715      -0.63991696
H        0.12989027      -0.29161857       1.08088383
H        1.07706044       0.17018521      -0.39735621
5
Properties=species:S:1:pos:R:3 smiles=C config_type=methane_mol dft_normal_mode_energy=0.07087564127923607 dft_normal_mode_temperature=300.0 pbc="F F F"
C       -0.00143247      -0.00546441       0.00475944
H       -0.63903144       0.88094925      -0.07069247
H       -0.35739403      -0.84272480      -0.63246160
H        0.05062189      -0.26692497       1.09701489
H        0.95979934       0.29514879      -0.44951854
5
Properties=species:S:1:pos:R:3 smiles=C config_type=methane_mol dft_normal_mode_energy=0.18946204023370547 dft_normal_mode_temperature=300.0 pbc="F F F"
C        0.01232428      -0.00499421      -0.01266129
H       -0.72507323       0.81391012      -0.06491707
H       -0.51164668      -0.81034103      -0.50992347
H        0.06957188      -0.27214564       1.01997634
H        1.01721708       0.32942043      -0.29320394
5
Properties=species:S:1:pos:R:3 smiles=C config_type=methane_mol dft_normal_mode_energy=0.11193202589584735 dft_normal_mode_temperature=300.0 pbc="F F F"
C       -0.00463678       0.00125236      -0.01052627
H       -0.71324695       0.84275665      -0.06508722
H       -0.43174244      -0.84701145      -0.60208873
H        0.15569324      -0.26684851       1.09643040
H        1.04147479       0.25751390      -0.30276634
5
Properties=species:S:1:pos:R:3 smiles=C config_type=methane_mol dft_normal_mode_energy=0.13453963684995096 dft_normal_mode_temperature=300.0 pbc="F F F"
C        0.02014196       0.00882905       0.00095820
H       -0.77121019       0.81119375      -0.10507994
H       -0.48503611      -0.84022495      -0.56226491
H        0.03035120      -0.33515768       1.04071772
H        0.98280916       0.26031391      -0.38373304
5
Properties=species:S:1:pos:R:3 smiles=C config_type=methane_mol dft_normal_mode_energy=0.20459702643475525 dft_normal_mode_temperature=300.0 pbc="F F F"
C        0.01430706       0.00123697       0.00888969
H       -0.70619762       0.78852994      -0.08296800
H       -0.45052461      -0.82248953      -0.68045965
H        0.02297463      -0.24679764       1.10531563
H        0.96018983       0.26735330      -0.44676154
5
Properties=species:S:1:pos:R:3 smiles=C config_type=methane_mol dft_normal_mode_energy=0.06491975008927416 dft_normal_mode_temperature=300.0 pbc="F F F"
C       -0.00781971      -0.00545031      -0.00245849
H       -0.66903882       0.87400054      -0.07095103
H       -0.35272260      -0.80975035      -0.61039936
H        0.11744566      -0.26067293       1.09474929
H        0.99442242       0.26270162      -0.38304784
5
Properties=species:S:1:pos:R:3 smiles=C config_type=methane_mol dft_normal_mode_energy=0.19517769192054177 dft_normal_mode_temperature=300.0 pbc="F F F"
C        0.00195151      -0.00276574       0.01080308
H       -0.64685667       0.85074054      -0.18315849
H       -0.48513365      -0.85458977      -0.60717231
H        0.09936185      -0.33799877       1.06679380
H        1.00629920       0.37613983      -0.40413614
5
Properties=species:S:1:pos:R:3 smiles=C config_type=methane_mol dft_normal_mode_energy=0.1453500597459223 dft_normal_mode_temperature=300.0 pbc="F F F"
C       -0.00999495      -0.00492258      -0.00367074
H       -0.58467220       0.87266672      -0.03658898
H       -0.35217413      -0.87250616      -0.59715649
H        0.06603822      -0.26314742       1.09184839
H        0.98683370       0.32297978      -0.41330548
5
Properties=species:S:1:pos:R:3 smiles=C config_type=methane_mol dft_normal_mode_energy=0.11827651888938984 dft_normal_mode_temperature=300.0 pbc="F F F"
C       -0.00569491      -0.00300417      -0.00376777
H       -0.62883756       0.86486760      -0.05249517
H       -0.35388427      -0.84329445      -0.61228076
H        0.10911431      -0.24914227       1.06949527
H        0.93839667       0.26470153      -0.35876563
5
Properties=species:S:1:pos:R:3 smiles=C config_type=methane_mol dft_normal_mode_energy=0.08240816131130473 dft_normal_mode_temperature=300.0 pbc="F F F"
C       -0.00484416       0.00485115      -0.00107877
H       -0.69429505       0.85480616      -0.12946836
H       -0.41771792      -0.84508219      -0.55116120
H        0.15494944      -0.33483306       1.01299554
H        1.01171406       0.26863473      -0.31845328
5
Properties=species:S:1:pos:R:3 smiles=C config_type=methane_mol dft_normal_mode_energy=0.11517924777805796 dft_normal_mode_temperature=300.0 pbc="F F F"
C        0.00358866       0.00909855       0.00946487
H       -0.72800750       0.89332280      -0.11921779
H       -0.37972181      -0.88277074      -0.58906173
H        0.06167134      -0.36311474       1.03989852
H        1.00022221       0.24547526      -0.44334567
5
Properties=species:S:1:pos:R:3 smiles=C config_type=methane_mol dft_normal_mode_energy=0.1579509364779826 dft_normal_mode_temperature=300.0 pbc="F F F"
C       -0.01129171       0.00594226      -0.00746654
H       -0.69485156       0.82087535      -0.08113180
H       -0.37700163      -0.81261585      -0.53831656
H        0.15096452      -0.31149066       1.03559882
H        1.05236657       0.23375448      -0.32612160
4
Properties=species:S:1:pos:R:3 smiles=C config_type=methane_rad1 dft_normal_mode_energy=0.020723336060789674 dft_normal_mode_temperature=300.0 pbc="F F F"
C        0.17236099      -0.22607304       0.01902412
H       -0.52090812      -0.81786972      -0.58460364
H        0.01199662      -0.22641279       1.10341974
H        0.95043289       0.42279930      -0.36936233
4
Properties=species:S:1:pos:R:3 smiles=C config_type=methane_rad1 dft_normal_mode_energy=0.029601613959711073 dft_normal_mode_temperature=300.0 pbc="F F F"
C        0.18027855      -0.23966115       0.02917426
H       -0.51714624      -0.73339904      -0.64428610
H       -0.03370012      -0.18107453       1.12532704
H        0.89801566       0.45488433      -0.45254588
4
Properties=species:S:1:pos:R:3 smiles=C config_type=methane_rad1 dft_normal_mode_energy=0.06818249792852718 dft_normal_mode_temperature=300.0 pbc="F F F"
C        0.19276726      -0.25043948       0.03555711
H       -0.57404058      -0.69359051      -0.66813812
H       -0.07085477      -0.13242580       1.07660435
H        0.84324312       0.49483983      -0.45603411
4
Properties=species:S:1:pos:R:3 smiles=C config_type=methane_rad1 dft_normal_mode_energy=0.013655824564899761 dft_normal_mode_temperature=300.0 pbc="F F F"
C        0.17168112      -0.22790547       0.02320952
H       -0.51472652      -0.80953646      -0.62513374
H        0.02539930      -0.20865157       1.10716846
H        0.93895021       0.41853896      -0.38245539
4
Properties=species:S:1:pos:R:3 smiles=C config_type=methane_rad1 dft_normal_mode_energy=0.08356904892900668 dft_normal_mode_temperature=300.0 pbc="F F F"
C        0.17575390      -0.24127991       0.01937330
H       -0.52725199      -0.75148804      -0.61335037
H       -0.00544091      -0.16674695       1.15323762
H        0.93377903       0.47793824      -0.39460172
4
Properties=species:S:1:pos:R:3 smiles=C config_type=methane_rad1 dft_normal_mode_energy=0.053405561642061096 dft_normal_mode_temperature=300.0 pbc="F F F"
C        0.15147261      -0.19890241       0.02019102
H       -0.39712553      -0.89696978      -0.58030499
H        0.07325991      -0.34485599       1.12782942
H        1.01430579       0.29662248      -0.41196510
4
Properties=species:S:1:pos:R:3 smiles=C config_type=methane_rad1 dft_normal_mode_energy=0.1189604742770527 dft_normal_mode_temperature=300.0 pbc="F F F"
C        0.15786825      -0.21049856       0.03793379
H       -0.39729984      -0.82709963      -0.64827601
H        0.04050898      -0.30566098       1.07216823
H        0.97101472       0.32571775      -0.49976217
4
Properties=species:S:1:pos:R:3 smiles=C config_type=methane_rad1 dft_normal_mode_energy=0.033567501844352345 dft_normal_mode_temperature=300.0 pbc="F F F"
C        0.17713566      -0.23502372       0.02028371
H       -0.53952216      -0.78002728      -0.58685003
H       -0.02011040      -0.20159925       1.11631195
H        0.94425431       0.46678563      -0.39502179
4
Properties=species:S:1:pos:R:3 smiles=C config_type=methane_rad1 dft_normal_mode_energy=0.03719231951308959 dft_normal_mode_temperature=300.0 pbc="F F F"
C        0.15998172      -0.21801462       0.03366334
H       -0.43608475      -0.82576214      -0.68146850
H        0.06134767      -0.25048456       1.11237245
H        0.96377579       0.35875738      -0.45588958
4
Properties=species:S:1:pos:R:3 smiles=C config_type=methane_rad1 dft_normal_mode_energy=0.13044339679160205 dft_normal_mode_temperature=300.0 pbc="F F F"
C        0.18209794      -0.25532531       0.02032885
H       -0.55632060      -0.69448244      -0.59629786
H       -0.03105925      -0.11626775       1.11783032
H        0.91286392       0.53779801      -0.38763765
4
Properties=species:S:1:pos:R:3 smiles=C config_type=methane_rad1 dft_normal_mode_energy=0.04086275215303262 dft_normal_mode_temperature=300.0 pbc="F F F"
C        0.15640112      -0.21922100       0.02244292
H       -0.46202109      -0.85584334      -0.64852938
H        0.10532690      -0.22426005       1.11694198
H        0.98840117       0.37699291      -0.35969201
4
Properties=species:S:1:pos:R:3 smiles=C config_type=methane_rad1 dft_normal_mode_energy=0.07752856869900296 dft_normal_mode_temperature=300.0 pbc="F F F"
C        0.18544339      -0.24730625       0.03274427
H       -0.52474152      -0.69003433      -0.65182308
H       -0.06661190      -0.16114511       1.12462791
H        0.87697421       0.48267611      -0.48685456
4
Properties=species:S:1:pos:R:3 smiles=C config_type=methane_rad1 dft_normal_mode_energy=0.05451314041627115 dft_normal_mode_temperature=300.0 pbc="F F F"
C        0.14531573      -0.19513316       0.01738761
H       -0.41202210      -0.94549233      -0.56424543
H        0.11149502      -0.35089766       1.09951632
H        1.06433548       0.30628198      -0.36630043
4
Properties=species:S:1:pos:R:3 smiles=C config_type=methane_rad1 dft_normal_mode_energy=0.1110997677669569 dft_normal_mode_temperature=300.0 pbc="F F F"
C        0.13103580      -0.19013399       0.02355614
H       -0.36162896      -0.97890754      -0.65928997
H        0.20524300      -0.33417399       1.12152877
H        1.09036134       0.26342189      -0.36676893
4
Properties=species:S:1:pos:R:3 smiles=C config_type=methane_rad1 dft_normal_mode_energy=0.05074143561918667 dft_normal_mode_temperature=300.0 pbc="F F F"
C        0.18076750      -0.23154910       0.01682564
H       -0.55529784      -0.79475807      -0.56927522
H       -0.03470015      -0.21596954       1.12399012
H        0.93134315       0.45448405      -0.37906807
4
Properties=species:S:1:pos:R:3 smiles=C config_type=methane_rad1 dft_normal_mode_energy=0.03129859749179568 dft_normal_mode_temperature=300.0 pbc="F F F"
C        0.15650836      -0.20849048       0.02828358
H       -0.44271234      -0.88007951      -0.63408987
H        0.05884232      -0.30203892       1.11497670
H        1.01430007       0.35115186      -0.44176202
4
Properties=species:S:1:pos:R:3 smiles=C config_type=methane_rad1 dft_normal_mode_energy=0.10103346361507962 dft_normal_mode_temperature=300.0 pbc="F F F"
C        0.17260287      -0.25001993       0.02490285
H       -0.52423698      -0.72424200      -0.64111109
H        0.03189056      -0.11520722       1.09783287
H        0.93097894       0.50329229      -0.37732647
4
Properties=species:S:1:pos:R:3 smiles=C config_type=methane_rad1 dft_normal_mode_energy=0.09871556218811021 dft_normal_mode_temperature=300.0 pbc="F F F"
C        0.15128629      -0.22129045       0.02913355
H       -0.40661221      -0.82132438      -0.70659978
H        0.11846841      -0.21576721       1.15876787
H        0.98079985       0.35864242      -0.42317633
4
Properties=species:S:1:pos:R:3 smiles=C config_type=methane_rad1 dft_normal_mode_energy=0.07084769941915973 dft_normal_mode_temperature=300.0 pbc="F F F"
C        0.13554027      -0.19030308       0.02523157
H       -0.33266666      -0.93530359      -0.62721074
H        0.14473789      -0.36743931       1.13543128
H        1.06822576       0.25509234      -0.43271895
4
Properties=species:S:1:pos:R:3 smiles=C config_type=methane_rad1 dft_normal_mode_energy=0.018295290387922287 dft_normal_mode_temperature=300.0 pbc="F F F"
C        0.16070251      -0.21869372       0.02024441
H       -0.45987808      -0.83799933      -0.59892549
H        0.06204862      -0.24978113       1.10972785
H        0.97827873       0.37838289      -0.37588558
4
Properties=species:S:1:pos:R:3 smiles=C config_type=methane_rad1 dft_normal_mode_energy=0.08581303358199596 dft_normal_mode_temperature=300.0 pbc="F F F"
C        0.16586938      -0.20729166       0.03425497
H       -0.46302297      -0.86854998      -0.64309953
H        0.00094892      -0.32338214       1.10655335
H        0.98095535       0.34667264      -0.49548724
4
Properties=species:S:1:pos:R:3 smiles=C config_type=methane_rad1 dft_normal_mode_energy=0.06987083313101612 dft_normal_mode_temperature=300.0 pbc="F F F"
C        0.16574989      -0.22317389       0.03112057
H       -0.42757030      -0.77675522      -0.65903968
H        0.02406867      -0.24191270       1.13436787
H        0.92380346       0.36264592      -0.47001891
4
Properties=species:S:1:pos:R:3 smiles=C config_type=methane_rad1 dft_normal_mode_energy=0.0650844495396855 dft_normal_mode_temperature=300.0 pbc="F F F"
C        0.16856385      -0.21257286       0.02853190
H       -0.44875088      -0.82651057      -0.62752828
H       -0.00575686      -0.29894273       1.13967644
H        0.94128008       0.34311753      -0.47598928
4
Properties=species:S:1:pos:R:3 smiles=C config_type=methane_rad1 dft_normal_mode_energy=0.02681657804656458 dft_normal_mode_temperature=300.0 pbc="F F F"