5
Properties=species:S:1:pos:R:3:dft_forces:R:3:dft_normal_mode_displacements_0:R:3:dft_normal_mode_displacements_1:R:3:dft_normal_mode_displacements_2:R:3:dft_normal_mode_displacements_3:R:3:dft_normal_mode_displacements_4:R:3:dft_normal_mode_displacements_5:R:3:dft_normal_mode_displacements_6:R:3:dft_normal_mode_displacements_7:R:3:dft_normal_mode_displacements_8:R:3:dft_normal_mode_displacements_9:R:3:dft_normal_mode_displacements_10:R:3:dft_normal_mode_displacements_11:R:3:dft_normal_mode_displacements_12:R:3:dft_normal_mode_displacements_13:R:3:dft_normal_mode_displacements_14:R:3 smiles=C config_type=methane_mol dft_energy=-1100.531352636066 dft_normal_mode_frequencies="-0.006230280669509248 -0.004344633419620084 -0.002062095407476702 1.9130343335685093e-05 6.652259135109179e-05 0.00019296469768732003 0.16444127410186046 0.16468421173320105 0.16492136820036127 0.1905214503893757 0.19076472931031307 0.3720778373962163 0.38762813403195445 0.38798717272400934 0.3881916704512659" pbc="F F F"
C       -0.00028156       0.00012211       0.00009684       0.00009031      -0.00285151      -0.00130702      -0.00038733      -0.00115183      -0.00037389      -0.00321455      -0.00027776      -0.00194572       0.01008144       0.01743197      -0.01135318       0.11980495      -0.16322764      -0.14606873       0.18717159      -0.01015808       0.16487140      -0.11329015      -0.18783377       0.11696895      -0.10868194      -0.02535572       0.02268311      -0.01425619      -0.03483122      -0.10751173      -0.03089388       0.10540869      -0.03000216      -0.00035361       0.00000523      -0.00089591       0.00039947       0.00041736      -0.00043133      -0.00074231       0.00054294      -0.00038814       0.05024734      -0.07138645      -0.01807831      -0.03806255      -0.00633914      -0.08040231       0.06308711       0.05310335      -0.03402767
H       -0.68358842       0.86273120      -0.08620131       0.00132728       0.00069567       0.00051920       0.35363801       0.28357912       0.04344660       0.19824050       0.10556193      -0.53456154      -0.24202078      -0.21079881      -0.30282380       0.11916214      -0.16377237      -0.14641177       0.19018361      -0.00865008       0.15613304      -0.13856142      -0.21034810       0.09142088       0.37096194       0.32845922      -0.13322513       0.10704339       0.12750547       0.53063164      -0.21534648      -0.05003132       0.10242953      -0.36435365      -0.30261437      -0.14442696       0.13747718       0.06207936      -0.47128771       0.31415055      -0.39689519       0.03950207      -0.48354570       0.61027039      -0.06435353       0.13620495      -0.17873675       0.00787415       0.03747133      -0.03076147      -0.00038822
H       -0.39814220      -0.84514361      -0.58733941       0.00085087       0.00007581       0.00200984      -0.53996051       0.06978407       0.26216239       0.10113619      -0.07736166       0.03915320       0.15838717      -0.35832133       0.42980425       0.12137842      -0.16315821      -0.14723163       0.18802255      -0.01226863       0.16734321      -0.09790095      -0.22268800       0.15678422       0.43347362      -0.08103678      -0.25018629      -0.11041053      -0.22258173       0.25643530       0.26339967      -0.28017746       0.30934423      -0.28701471       0.31204132      -0.25515401      -0.36620638      -0.06112837       0.33608440       0.17901023       0.38229212       0.26559755       0.16372985       0.32457183       0.22922009       0.20022405       0.43476121       0.29200446      -0.14361658      -0.31658600      -0.22881131
H        0.08696427      -0.29687638       1.05919959      -0.00060330       0.00080792       0.00030369       0.17242705       0.14753041       0.02717783      -0.53552283       0.25883900       0.11533815       0.24723553       0.51966443       0.10969271       0.11856842      -0.16390003      -0.14615572       0.18027434      -0.00448493       0.16704301      -0.09028824      -0.14260153       0.12773240       0.54016647       0.09137914      -0.00215810       0.02291692       0.31602367       0.00417260       0.12133356      -0.42311370      -0.18068672       0.43917680       0.23656517       0.02956478       0.23203158      -0.41955591      -0.13661860      -0.03950626       0.13244063      -0.47272134       0.00179803       0.00597286      -0.05847061       0.05383861      -0.19898246       0.69577693       0.03884203      -0.09810314       0.37041971
H        0.99504791       0.27916669      -0.38575571      -0.00166515       0.00127211      -0.00152570       0.01139161      -0.50548798      -0.33412657       0.22260905      -0.28811559       0.37188540      -0.12358345       0.11696815      -0.28391452       0.12010212      -0.16206222      -0.14446179       0.19017605      -0.01523409       0.16893985      -0.12642184      -0.17588488       0.09175892      -0.04953329      -0.03665910       0.11527358       0.15032884       0.19410715       0.48988466       0.19874805      -0.50274277       0.12642261       0.21640575      -0.24605395       0.38069153      -0.00806142       0.41363225       0.27696169      -0.44480300      -0.12430661       0.17225645      -0.28071157      -0.09019931       0.10901993       0.06327377       0.01849254      -0.03761105      -0.68441971      -0.18731135       0.26424126
4
Properties=species:S:1:pos:R:3:dft_forces:R:3:dft_normal_mode_displacements_0:R:3:dft_normal_mode_displacements_1:R:3:dft_normal_mode_displacements_2:R:3:dft_normal_mode_displacements_3:R:3:dft_normal_mode_displacements_4:R:3:dft_normal_mode_displacements_5:R:3:dft_normal_mode_displacements_6:R:3:dft_normal_mode_displacements_7:R:3:dft_normal_mode_displacements_8:R:3:dft_normal_mode_displacements_9:R:3:dft_normal_mode_displacements_10:R:3:dft_normal_mode_displacements_11:R:3 smiles=C config_type=methane_rad1 dft_energy=-1082.2280607884577 dft_normal_mode_frequencies="-0.012480614083043915 -0.01060166081467307 -5.7290560334082446e-05 -2.662011694220282e-06 1.2131563830349993e-05 0.002276068395556408 0.05646423570677361 0.17139657619547174 0.17162066524220645 0.38402351679616786 0.40571900022705437 0.4059134879573747" pbc="F F F"
C        0.16731113      -0.22224275       0.02521406       0.00016829       0.00048189       0.00002114      -0.00116500       0.00151716      -0.00023303      -0.00122492       0.00147426      -0.00023886       0.16760505       0.12647573      -0.14960923       0.12137808       0.08758630       0.21001975       0.15387072      -0.20694991      -0.00261694       0.00362589       0.00390488      -0.00375317      -0.08242727       0.09931598      -0.00890612      -0.06689341      -0.05616014      -0.00689500      -0.00911242       0.00027009       0.08717153       0.00004112       0.00002558      -0.00019273       0.02841776       0.01556111      -0.08953686      -0.06768406      -0.05900602      -0.03165643
H       -0.48259331      -0.81993466      -0.62166477      -0.00117839       0.00108976       0.00032345      -0.25053849       0.27902113      -0.00565437      -0.47303464       0.52609469      -0.01095995       0.16159865       0.12031841      -0.13789467       0.12130009       0.08767983       0.21000935       0.15395407      -0.20720789      -0.00246249       0.24165856       0.24855191      -0.46861463       0.33673071      -0.40895645       0.03924657       0.16168692       0.10237482      -0.36497407       0.34449256       0.24237715      -0.50287987       0.34144464       0.31393621       0.34024994       0.13674948       0.12482173       0.12219060       0.43487173       0.39993572       0.43686577
H        0.02665626      -0.24245345       1.11084315      -0.00191844       0.00243352      -0.00046993       0.54121920      -0.61478284       0.05894013       0.05417391       0.00538342       0.00685536       0.17776200       0.13668103      -0.14809861       0.12138049       0.08757558       0.21002039       0.15349655      -0.20623348      -0.00265231      -0.40542444      -0.39492749      -0.06437020       0.32100041      -0.38125003       0.03478798       0.58544852       0.49317310       0.08772655      -0.02778685      -0.01727518       0.07126315       0.07394756       0.01043641      -0.56903586      -0.09472421      -0.01218999       0.74229601      -0.03071602      -0.00990839       0.17193159
H        0.95763493       0.39527085      -0.41348343       0.00292854      -0.00400516       0.00012533      -0.27401321       0.31513421      -0.05120583       0.43248976      -0.54886838       0.00684460       0.16316945       0.12275256      -0.16282060       0.12140859       0.08754120       0.21001069       0.15416441      -0.20740956      -0.00273438       0.18423999       0.14635883       0.52147408       0.32452322      -0.39306926       0.03213973       0.04998221       0.07366806       0.35941043      -0.20811971      -0.22831976      -0.60714478      -0.41588099      -0.32467710       0.23108750      -0.38064293      -0.29805370       0.20240582       0.40234824       0.31307279      -0.23158956
4
Properties=species:S:1:pos:R:3:dft_forces:R:3:dft_normal_mode_displacements_0:R:3:dft_normal_mode_displacements_1:R:3:dft_normal_mode_displacements_2:R:3:dft_normal_mode_displacements_3:R:3:dft_normal_mode_displacements_4:R:3:dft_normal_mode_displacements_5:R:3:dft_normal_mode_displacements_6:R:3:dft_normal_mode_displacements_7:R:3:dft_normal_mode_displacements_8:R:3:dft_normal_mode_displacements_9:R:3:dft_normal_mode_displacements_10:R:3:dft_normal_mode_displacements_11:R:3 smiles=C config_type=methane_rad2 dft_energy=-1082.2279984147635 dft_normal_mode_frequencies="-0.005884859762340971 -0.003373191219734482 -3.289698580224942e-05 2.6178697730133828e-05 4.926704046187052e-05 0.0038558932328323727 0.0575480976790933 0.17154002333914586 0.17164381550919286 0.3839740169049666 0.4056818415633559 0.4059077699406791" pbc="F F F"
C        0.09380972       0.21318002       0.14604430       0.00066859      -0.00059356      -0.00007132       0.00004697       0.00029356       0.00030948       0.00399815      -0.00016469       0.00116728      -0.10204458      -0.19574669       0.13332964      -0.00363841       0.14646405       0.21224633      -0.23679060       0.08210441      -0.06071434      -0.00127752      -0.00112354       0.00126574      -0.04870203      -0.09799801      -0.06904073       0.01355215      -0.05427580       0.06747753      -0.08000591       0.01815215       0.03068447       0.00017610       0.00033477      -0.00003595      -0.08579467       0.01566580       0.03829388       0.02064031      -0.06017905       0.07081403
H       -0.75688194       0.84091167      -0.13800846      -0.00230538      -0.00423058      -0.00223125      -0.09053682       0.08331661       0.45576417      -0.12811108      -0.00985090       0.37635927      -0.09896458      -0.19011555       0.13653552      -0.00344771       0.14592813       0.21048926      -0.23746310       0.08436995      -0.05368120      -0.39333721      -0.63945012      -0.23357752       0.19219348       0.38485255       0.27397634       0.32532952       0.15171154      -0.44397137       0.21822687       0.19639528      -0.43373438       0.44756360      -0.32971989       0.14925592       0.40812562      -0.30631385       0.14408753      -0.43504606       0.31516463      -0.13773433
H        0.04340698      -0.39869260       1.05223666       0.00214233       0.00422319       0.00284690       0.12836838      -0.58438317      -0.38684361       0.51623722       0.20852069       0.17017629      -0.10338863      -0.19685961       0.13250326      -0.00368586       0.14926682       0.21413387      -0.22998965       0.08406517      -0.05901657       0.30835973       0.16219491       0.12857212       0.19835354       0.39547190       0.27726925      -0.15834679       0.01338483       0.08879929       0.69565603      -0.26301925      -0.11913505       0.02630493       0.32012173      -0.47437286       0.00000368       0.12516530      -0.17840657       0.03678758       0.41081615      -0.61173209
H        0.99745324       0.20235290      -0.47197650      -0.00050555       0.00060095      -0.00054433      -0.03422419       0.50695334      -0.05829792      -0.37833866      -0.20945725      -0.55474902      -0.10373428      -0.20026816       0.13093432      -0.00380724       0.14414079       0.21203670      -0.24285651       0.07784110      -0.06951759       0.07412809       0.46873824       0.10347282       0.18998785       0.38727742       0.27158318      -0.32847385       0.48166525      -0.44890705       0.03948989      -0.14968083       0.18722617      -0.47596612       0.00560924       0.32554781       0.61417347      -0.00552101      -0.42197994       0.15231480      -0.00890312      -0.09433263
4
Properties=species:S:1:pos:R:3:dft_forces:R:3:dft_normal_mode_displacements_0:R:3:dft_normal_mode_displacements_1:R:3:dft_normal_mode_displacements_2:R:3:dft_normal_mode_displacements_3:R:3:dft_normal_mode_displacements_4:R:3:dft_normal_mode_displacements_5:R:3:dft_normal_mode_displacements_6:R:3:dft_normal_mode_displacements_7:R:3:dft_normal_mode_displacements_8:R:3:dft_normal_mode_displacements_9:R:3:dft_normal_mode_displacements_10:R:3:dft_normal_mode_displacements_11:R:3 smiles=C config_type=methane_rad3 dft_energy=-1082.2280250271726 dft_normal_mode_frequencies="-0.010450851120362738 -0.003424292067772803 -1.128665558529288e-05 -1.4465924956437023e-06 6.427114774821172e-05 0.009430555822714187 0.05747293644040305 0.17149109659104983 0.1717222301002928 0.38398616897560633 0.4058447026481847 0.4058760236587019" pbc="F F F"
C       -0.02415030       0.07793974      -0.26360688       0.00027954      -0.00052465       0.00016024      -0.00076287       0.00057033      -0.00341117      -0.00288860      -0.00385629      -0.00084641      -0.05137395       0.03608029       0.25011805       0.21391369      -0.12972744       0.06263872      -0.13455705      -0.21992569       0.00410135      -0.00007922       0.00041625      -0.00037803      -0.00935989       0.03299997      -0.12476567       0.03919751       0.07635006       0.01719698      -0.07820374       0.03660244       0.01543463       0.00014710      -0.00015346      -0.00047768      -0.07492075      -0.05801139      -0.00971648       0.05823326      -0.07155367      -0.02345157
H       -0.71366208       0.88632850      -0.00046009       0.00065189      -0.00086622       0.00395691      -0.11777040      -0.00175843      -0.30300239       0.42089437       0.37923745      -0.06787756      -0.05128443       0.03610261       0.25028078       0.21394592      -0.12972335       0.06271476      -0.14245014      -0.22716902       0.00568281      -0.09124422       0.15510167      -0.71479983       0.03716850      -0.13387459       0.50754048      -0.56360877      -0.41687965      -0.06744749       0.20059263       0.24629654       0.05176796       0.36078367      -0.42283960      -0.13753268       0.00228780      -0.01954280      -0.00528937      -0.48433173       0.56824047       0.18528718
H       -0.41201256      -0.91761223      -0.50173245      -0.00073619       0.00119637      -0.00326316       0.08680664       0.07656666      -0.46212122      -0.52521212       0.18919152       0.04334927      -0.05144805       0.03605023       0.25036253       0.21387056      -0.12972912       0.06271216      -0.12479585      -0.22350246       0.00314750       0.09341525      -0.18666470       0.62968143       0.03689605      -0.13587178       0.50539607      -0.04693561       0.09479244       0.02650452       0.71893215      -0.24340461      -0.11740081       0.20424883       0.52460636       0.12533569       0.22665047       0.59805730       0.14371387       0.14992221       0.35763719       0.08504208
H        1.05340394       0.26846898      -0.29798158      -0.00019525       0.00019450      -0.00085399       0.03991068      -0.08272397       0.80674695       0.10102350      -0.58414974       0.03522529      -0.05135854       0.03598470       0.25007068       0.21390950      -0.12972503       0.06250135      -0.13652335      -0.20899180       0.00315435      -0.00184924       0.02535141       0.08957611       0.03752469      -0.12366094       0.47297930       0.14345577      -0.58772368      -0.16397875       0.01237394      -0.43905590      -0.11828813      -0.56678056      -0.09994060       0.01788940       0.66379328       0.11273085      -0.02264534      -0.35947930      -0.07326640       0.00911403
4
Properties=species:S:1:pos:R:3:dft_forces:R:3:dft_normal_mode_displacements_0:R:3:dft_normal_mode_displacements_1:R:3:dft_normal_mode_displacements_2:R:3:dft_normal_mode_displacements_3:R:3:dft_normal_mode_displacements_4:R:3:dft_normal_mode_displacements_5:R:3:dft_normal_mode_displacements_6:R:3:dft_normal_mode_displacements_7:R:3:dft_normal_mode_displacements_8:R:3:dft_normal_mode_displacements_9:R:3:dft_normal_mode_displacements_10:R:3:dft_normal_mode_displacements_11:R:3 smiles=C config_type=methane_rad4 dft_energy=-1082.2280268903633 dft_normal_mode_frequencies="-0.00408777755709014 -0.003555027473477385 -1.107275195450427e-05 1.4139179424111109e-05 6.425428128216222e-05 0.01062006252474313 0.058836363275534084 0.17148427789236306 0.17179622442411108 0.38390785162797864 0.4056240720661054 0.40583147532615205" pbc="F F F"
C       -0.24177599      -0.06958466       0.09746325       0.00044074       0.00052847       0.00006731       0.00248623      -0.00063148      -0.00063965       0.00096764       0.00345450      -0.00368319      -0.09145828       0.16263015       0.17803775      -0.24107058      -0.05735387      -0.07145439      -0.00546905      -0.19173692       0.17233112       0.00063742       0.00011218      -0.00081889      -0.11726786      -0.03209826       0.04419278      -0.03595881       0.06251482      -0.04966988      -0.00905886      -0.05741518      -0.06564942       0.00027148       0.00020612       0.00011573       0.00973582       0.06240501       0.07118383      -0.03896447       0.06792832      -0.05425944
H       -0.60494197       0.93734607      -0.13142963      -0.00195430      -0.00110246       0.00087590       0.46559562       0.19573684       0.12889860       0.09748792      -0.08314111      -0.53746703      -0.09204527       0.16247062       0.17826928      -0.24291153      -0.05791255      -0.07098978      -0.00645888      -0.19431342       0.16256885      -0.57230146      -0.15481002       0.22917338       0.47664805       0.13183364      -0.17724891       0.06262944       0.16012262       0.27646689       0.19538319       0.18467575       0.65010025      -0.19071869       0.52836853      -0.11988913       0.10880734      -0.29005361       0.07619016       0.23071246      -0.64415436       0.14194889
H       -0.31139033      -0.86054725      -0.65627630      -0.00066402       0.00008785       0.00046394      -0.75983328       0.02044822       0.04797348      -0.18177287      -0.41917233       0.45692800      -0.09162397       0.16259473       0.17808889      -0.23802310      -0.05670552      -0.07241698      -0.00423720      -0.19899147       0.17983233      -0.12165694      -0.02578793       0.03763336       0.44120885       0.12290150      -0.17009412       0.32027222      -0.48995688       0.49529030       0.02838834      -0.10263189      -0.00277349      -0.03679833      -0.41692544      -0.39717963      -0.04822797      -0.55162698      -0.52425182      -0.00903811      -0.04700804      -0.05847409
H        0.18563529      -0.28751616       1.08133868       0.00217758       0.00048614      -0.00140715       0.25109022      -0.22798090      -0.15869902       0.06781937       0.50801940       0.07904525      -0.09078420       0.16278889       0.17778053      -0.24227927      -0.05745972      -0.07095312      -0.00564660      -0.18188575       0.17458838       0.68716947       0.17692828      -0.26009185       0.47895725       0.12790854      -0.17944566       0.04558848      -0.41511121      -0.17987637      -0.11582490       0.60213114       0.13496889       0.22428177      -0.11390192       0.51568698      -0.17658926       0.09808206      -0.40014283       0.24261719      -0.11824993       0.56306360
