
                                 *****************
                                 * O   R   C   A *
                                 *****************

           --- An Ab Initio, DFT and Semiempirical electronic structure package ---

                  #######################################################
                  #                        -***-                        #
                  #          Department of theory and spectroscopy      #
                  #               Directorship: Frank Neese             #
                  #        Max Planck Institute fuer Kohlenforschung    #
                  #                Kaiser Wilhelm Platz 1               #
                  #                 D-45470 Muelheim/Ruhr               #
                  #                      Germany                        #
                  #                                                     #
                  #                  All rights reserved                #
                  #                        -***-                        #
                  #######################################################


                         Program Version 4.2.1 -  RELEASE  -


 With contributions from (in alphabetic order):
   Daniel Aravena         : Magnetic Suceptibility
   Michael Atanasov       : Ab Initio Ligand Field Theory (pilot matlab implementation)
   Alexander A. Auer      : GIAO ZORA, VPT2
   Ute Becker             : Parallelization
   Giovanni Bistoni       : ED, misc. LED, open-shell LED, HFLD
   Martin Brehm           : Molecular dynamics
   Dmytro Bykov           : SCF Hessian
   Vijay G. Chilkuri      : MRCI spin determinant printing, contributions to CSF-ICE
   Dipayan Datta          : RHF DLPNO-CCSD density
   Achintya Kumar Dutta   : EOM-CC, STEOM-CC
   Dmitry Ganyushin       : Spin-Orbit,Spin-Spin,Magnetic field MRCI
   Miquel Garcia          : C-PCM Hessian, Gaussian charge scheme
   Yang Guo               : DLPNO-NEVPT2, CIM, IAO-localization
   Andreas Hansen         : Spin unrestricted coupled pair/coupled cluster methods
   Benjamin Helmich-Paris : CASSCF linear response (MC-RPA)
   Lee Huntington         : MR-EOM, pCC
   Robert Izsak           : Overlap fitted RIJCOSX, COSX-SCS-MP3, EOM
   Christian Kollmar      : KDIIS, OOCD, Brueckner-CCSD(T), CCSD density
   Simone Kossmann        : Meta GGA functionals, TD-DFT gradient, OOMP2, MP2 Hessian
   Martin Krupicka        : AUTO-CI
   Lucas Lang             : DCDCAS
   Dagmar Lenk            : GEPOL surface, SMD
   Dimitrios Liakos       : Extrapolation schemes; Compound Job, initial MDCI parallelization
   Dimitrios Manganas     : Further ROCIS development; embedding schemes
   Dimitrios Pantazis     : SARC Basis sets
   Taras Petrenko         : DFT Hessian,TD-DFT gradient, ASA, ECA, R-Raman, ABS, FL, XAS/XES, NRVS
   Peter Pinski           : DLPNO-MP2, DLPNO-MP2 Gradient
   Christoph Reimann      : Effective Core Potentials
   Marius Retegan         : Local ZFS, SOC
   Christoph Riplinger    : Optimizer, TS searches, QM/MM, DLPNO-CCSD(T), (RO)-DLPNO pert. Triples
   Tobias Risthaus        : Range-separated hybrids, TD-DFT gradient, RPA, STAB
   Michael Roemelt        : Original ROCIS implementation
   Masaaki Saitow         : Open-shell DLPNO-CCSD energy and density
   Barbara Sandhoefer     : DKH picture change effects
   Avijit Sen             : IP-ROCIS
   Kantharuban Sivalingam : CASSCF convergence, NEVPT2, FIC-MRCI
   Bernardo de Souza      : ESD, SOC TD-DFT
   Georgi Stoychev        : AutoAux, RI-MP2 NMR
   Willem Van den Heuvel  : Paramagnetic NMR
   Boris Wezisla          : Elementary symmetry handling
   Frank Wennmohs         : Technical directorship


 We gratefully acknowledge several colleagues who have allowed us to
 interface, adapt or use parts of their codes:
   Stefan Grimme, W. Hujo, H. Kruse,             : VdW corrections, initial TS optimization,
                  C. Bannwarth                     DFT functionals, gCP, sTDA/sTD-DF
   Ed Valeev, F. Pavosevic, A. Kumar             : LibInt (2-el integral package), F12 methods
   Garnet Chan, S. Sharma, J. Yang, R. Olivares  : DMRG
   Ulf Ekstrom                                   : XCFun DFT Library
   Mihaly Kallay                                 : mrcc  (arbitrary order and MRCC methods)
   Andreas Klamt, Michael Diedenhofen            : otool_cosmo (COSMO solvation model)
   Jiri Pittner, Ondrej Demel                    : Mk-CCSD
   Frank Weinhold                                : gennbo (NPA and NBO analysis)
   Christopher J. Cramer and Donald G. Truhlar   : smd solvation model
   Lars Goerigk                                  : TD-DFT with DH, B97 family of functionals
   V. Asgeirsson, H. Jonsson                     : NEB implementation
   FAccTs GmbH                                   : IRC, NEB, NEB-TS, Multilevel, MM, QM/MM, CI optimization
   S Lehtola, MJT Oliveira, MAL Marques          : LibXC Library


 Your calculation uses the libint2 library for the computation of 2-el integrals
 For citations please refer to: http://libint.valeyev.net

 Your ORCA version has been built with support for libXC version: 4.2.3
 For citations please refer to: https://tddft.org/programs/libxc/

 This ORCA versions uses:
   CBLAS   interface :  Fast vector & matrix operations
   LAPACKE interface :  Fast linear algebra routines
   SCALAPACK package :  Parallel linear algebra routines


Your calculation utilizes the atom-pairwise dispersion correction
with the Becke-Johnson damping scheme (D3BJ)
Cite in your paper:
S.Grimme, S.Ehrlich, L.Goerigk, J Comput Chem, (2011), 32, 1456–1465 
S.Grimme, J.Antony, S.Ehrlich and H.Krieg, J.Chem.Phys., 132, (2010), 154104 
   

----- Orbital basis set information -----
Your calculation utilizes the basis: def2-SV(P)
   F. Weigend and R. Ahlrichs, Phys. Chem. Chem. Phys. 7, 3297 (2005).

----- AuxJ basis set information -----
Your calculation utilizes the auxiliary basis: def2/J
   F. Weigend, Phys. Chem. Chem. Phys. 8, 1057 (2006).

================================================================================
                                        WARNINGS
                       Please study these warnings very carefully!
================================================================================


WARNING: Geometry Optimization
  ===> : Switching off AutoStart
         For restart on a previous wavefunction, please use MOREAD

INFO   : the flag for use of LIBINT has been found!

================================================================================
                                       INPUT FILE
================================================================================
NAME = orca4.inp
|  1> ! UKS B3LYP def2-SV(P) def2/J D3BJ Opt
|  2> %scf Convergence VeryTight
|  3> SmearTemp 2000
|  4> maxiter 500
|  5> end
|  6> *xyz 0 1
|  7> C -3.8053 1.374733 0.308099
|  8> C -4.087477 0.048356 -0.334001
|  9> C -2.876927 -0.824053 -0.488204
| 10> C -1.632852 -0.258142 0.12959
| 11> C -0.464677 -1.125876 -0.325246
| 12> C 0.620098 -1.187067 0.713534
| 13> C 1.635161 -0.080492 0.525963
| 14> C 2.563961 -0.391231 -0.616863
| 15> C 3.969658 0.122167 -0.341472
| 16> C 3.951012 1.466781 0.348404
| 17> H -3.715824 2.17217 -0.473089
| 18> H -4.713232 1.638559 0.90796
| 19> H -2.930599 1.371957 0.981448
| 20> H -4.495276 0.236481 -1.349003
| 21> H -4.881777 -0.511491 0.212104
| 22> H -2.640446 -1.04906 -1.556029
| 23> H -3.055597 -1.814394 -0.000165
| 24> H -1.408391 0.768358 -0.255616
| 25> H -1.76411 -0.27967 1.227673
| 26> H -0.818216 -2.139702 -0.644331
| 27> H 0.00108 -0.691158 -1.245661
| 28> H 1.187088 -2.143533 0.587899
| 29> H 0.20436 -1.179662 1.74136
| 30> H 2.256458 0.037836 1.429353
| 31> H 1.106679 0.8712 0.335389
| 32> H 2.212753 0.030063 -1.572098
| 33> H 2.673838 -1.486222 -0.774156
| 34> H 4.528287 0.242513 -1.295034
| 35> H 4.521599 -0.652241 0.244036
| 36> H 2.924862 1.855598 0.460674
| 37> H 4.418864 1.344451 1.357795
| 38> H 4.514942 2.232769 -0.240311
| 39> *
| 40> 
| 41>                          ****END OF INPUT****
================================================================================

                       *****************************
                       * Geometry Optimization Run *
                       *****************************

Geometry optimization settings:
Update method            Update   .... BFGS
Choice of coordinates    CoordSys .... Z-matrix Internals
Initial Hessian          InHess   .... Almoef's Model

Convergence Tolerances:
Energy Change            TolE     ....  5.0000e-06 Eh
Max. Gradient            TolMAXG  ....  3.0000e-04 Eh/bohr
RMS Gradient             TolRMSG  ....  1.0000e-04 Eh/bohr
Max. Displacement        TolMAXD  ....  4.0000e-03 bohr
RMS Displacement         TolRMSD  ....  2.0000e-03 bohr
Strict Convergence                ....  False
------------------------------------------------------------------------------
                        ORCA OPTIMIZATION COORDINATE SETUP
------------------------------------------------------------------------------

The optimization will be done in new redundant internal coordinates
Making redundant internal coordinates   ...  (new redundants) done
Evaluating the initial hessian          ...  (Almloef) done
Evaluating the coordinates              ...  done
Calculating the B-matrix                .... done
Calculating the G-matrix                .... done
Diagonalizing the G-matrix              .... done
Small eigenvalue found = 4.085e-03
Small eigenvalue found = 9.485e-03
Small eigenvalue found = 1.399e-02
Small eigenvalue found = 1.810e-02
The first mode is                       ....   82
The number of degrees of freedom        ....   90

    -----------------------------------------------------------------
                    Redundant Internal Coordinates


    -----------------------------------------------------------------
         Definition                    Initial Value    Approx d2E/dq
    -----------------------------------------------------------------
      1. B(C   1,C   0)                  1.5004         0.416492   
      2. B(C   2,C   1)                  1.5001         0.416943   
      3. B(C   3,C   2)                  1.4999         0.417281   
      4. B(C   4,C   3)                  1.5246         0.381029   
      5. B(C   5,C   4)                  1.5032         0.412259   
      6. B(C   6,C   5)                  1.5133         0.397227   
      7. B(C   7,C   6)                  1.5051         0.409382   
      8. B(C   8,C   7)                  1.5216         0.385220   
      9. B(C   9,C   8)                  1.5114         0.400026   
     10. B(H  10,C   0)                  1.1199         0.322646   
     11. B(H  11,C   0)                  1.1197         0.322852   
     12. B(H  12,C   0)                  1.1039         0.342223   
     13. B(H  13,C   1)                  1.1099         0.334691   
     14. B(H  14,C   1)                  1.1147         0.328855   
     15. B(H  15,C   2)                  1.1166         0.326573   
     16. B(H  16,C   2)                  1.1184         0.324391   
     17. B(H  17,C   3)                  1.1191         0.323546   
     18. B(H  18,C   3)                  1.1061         0.339407   
     19. B(H  19,C   4)                  1.1201         0.322391   
     20. B(H  20,C   4)                  1.1194         0.323225   
     21. B(H  21,C   5)                  1.1190         0.323748   
     22. B(H  22,C   5)                  1.1087         0.336135   
     23. B(H  23,C   6)                  1.1028         0.343584   
     24. B(H  24,C   6)                  1.1051         0.340621   
     25. B(H  25,C   7)                  1.1015         0.345200   
     26. B(H  26,C   7)                  1.1117         0.332540   
     27. B(H  27,C   8)                  1.1117         0.332534   
     28. B(H  28,C   8)                  1.1168         0.326377   
     29. B(H  29,C   9)                  1.1031         0.343217   
     30. B(H  30,C   9)                  1.1192         0.323412   
     31. B(H  31,C   9)                  1.1186         0.324146   
     32. A(C   1,C   0,H  12)          114.0699         0.327419   
     33. A(C   1,C   0,H  11)          106.5623         0.324295   
     34. A(H  11,C   0,H  12)          108.4409         0.283656   
     35. A(C   1,C   0,H  10)          110.2417         0.324261   
     36. A(H  10,C   0,H  11)          105.7063         0.281078   
     37. A(H  10,C   0,H  12)          111.3451         0.283628   
     38. A(H  13,C   1,H  14)          105.7437         0.283487   
     39. A(C   2,C   1,H  14)          109.4692         0.325337   
     40. A(C   0,C   1,H  14)          111.6132         0.325279   
     41. A(C   0,C   1,H  13)          108.0965         0.326221   
     42. A(C   0,C   1,C   2)          113.9751         0.377266   
     43. A(C   2,C   1,H  13)          107.5214         0.326279   
     44. A(C   3,C   2,H  15)          107.1136         0.325008   
     45. A(C   3,C   2,H  16)          106.6703         0.324650   
     46. A(C   1,C   2,H  16)          109.9495         0.324607   
     47. A(C   1,C   2,H  15)          112.7309         0.324964   
     48. A(C   1,C   2,C   3)          114.0528         0.377389   
     49. A(H  15,C   2,H  16)          105.8250         0.281812   
     50. A(C   4,C   3,H  18)          112.0866         0.322228   
     51. A(C   4,C   3,H  17)          105.4072         0.319716   
     52. A(C   2,C   3,C   4)          107.3320         0.371569   
     53. A(C   2,C   3,H  17)          111.7562         0.324511   
     54. A(C   2,C   3,H  18)          107.6460         0.327076   
     55. A(H  17,C   3,H  18)          112.5416         0.283387   
     56. A(C   5,C   4,H  19)          112.8171         0.323676   
     57. A(C   3,C   4,H  19)          110.9952         0.319529   
     58. A(C   3,C   4,C   5)          111.7122         0.370796   
     59. A(C   5,C   4,H  20)          106.4845         0.323813   
     60. A(C   3,C   4,H  20)          110.0639         0.319664   
     61. A(H  19,C   4,H  20)          104.3943         0.281094   
     62. A(C   4,C   5,C   6)          111.6317         0.373464   
     63. A(C   6,C   5,H  22)          111.1943         0.323921   
     64. A(C   4,C   5,H  22)          111.7005         0.325904   
     65. A(C   6,C   5,H  21)          105.7384         0.321933   
     66. A(C   4,C   5,H  21)          108.8368         0.323899   
     67. A(H  21,C   5,H  22)          107.4449         0.282988   
     68. A(C   5,C   6,C   7)          110.9210         0.373013   
     69. A(H  23,C   6,H  24)          108.5589         0.286208   
     70. A(C   7,C   6,H  24)          109.9963         0.326240   
     71. A(C   5,C   6,H  24)          109.2881         0.324627   
     72. A(C   7,C   6,H  23)          107.2476         0.326705   
     73. A(C   5,C   6,H  23)          110.7828         0.325089   
     74. A(C   6,C   7,C   8)          111.2848         0.371047   
     75. A(H  25,C   7,H  26)          106.5913         0.285348   
     76. A(C   8,C   7,H  26)          105.4640         0.321727   
     77. A(C   6,C   7,H  26)          111.8262         0.324954   
     78. A(C   8,C   7,H  25)          108.8114         0.323704   
     79. A(C   6,C   7,H  25)          112.5045         0.326958   
     80. A(H  27,C   8,H  28)          106.0473         0.282871   
     81. A(C   9,C   8,H  28)          112.5635         0.322731   
     82. A(C   7,C   8,H  28)          108.5115         0.320744   
     83. A(C   9,C   8,H  27)          107.5429         0.323721   
     84. A(C   7,C   8,H  27)          110.2125         0.321726   
     85. A(C   7,C   8,C   9)          111.8009         0.369575   
     86. A(H  30,C   9,H  31)          109.8001         0.281355   
     87. A(H  29,C   9,H  31)          106.3299         0.283960   
     88. A(C   8,C   9,H  31)          111.2695         0.322368   
     89. A(H  29,C   9,H  30)          109.6085         0.283860   
     90. A(C   8,C   9,H  30)          108.0145         0.322248   
     91. A(C   8,C   9,H  29)          111.8098         0.325407   
     92. D(C   2,C   1,C   0,H  11)   -146.5333         0.013730   
     93. D(C   2,C   1,C   0,H  12)    -26.9102         0.013730   
     94. D(H  13,C   1,C   0,H  11)     93.9972         0.013730   
     95. D(H  14,C   1,C   0,H  11)    -21.8843         0.013730   
     96. D(H  13,C   1,C   0,H  10)    -20.2504         0.013730   
     97. D(C   2,C   1,C   0,H  10)     99.2191         0.013730   
     98. D(H  14,C   1,C   0,H  12)     97.7388         0.013730   
     99. D(H  14,C   1,C   0,H  10)   -136.1319         0.013730   
    100. D(H  13,C   1,C   0,H  12)   -146.3797         0.013730   
    101. D(C   3,C   2,C   1,H  13)    124.6227         0.013759   
    102. D(C   3,C   2,C   1,H  14)   -120.9588         0.013759   
    103. D(H  15,C   2,C   1,H  13)      2.1857         0.013759   
    104. D(H  15,C   2,C   1,H  14)    116.6042         0.013759   
    105. D(C   3,C   2,C   1,C   0)      4.8284         0.013759   
    106. D(H  16,C   2,C   1,H  13)   -115.6283         0.013759   
    107. D(H  16,C   2,C   1,H  14)     -1.2098         0.013759   
    108. D(H  16,C   2,C   1,C   0)    124.5774         0.013759   
    109. D(H  15,C   2,C   1,C   0)   -117.6086         0.013759   
    110. D(H  18,C   3,C   2,C   1)     69.1276         0.013781   
    111. D(H  17,C   3,C   2,H  16)   -176.5135         0.013781   
    112. D(H  18,C   3,C   2,H  15)   -165.4096         0.013781   
    113. D(H  17,C   3,C   2,H  15)     70.5288         0.013781   
    114. D(C   4,C   3,C   2,H  15)    -44.5715         0.013781   
    115. D(H  17,C   3,C   2,C   1)    -54.9340         0.013781   
    116. D(H  18,C   3,C   2,H  16)    -52.4519         0.013781   
    117. D(C   4,C   3,C   2,H  16)     68.3863         0.013781   
    118. D(C   4,C   3,C   2,C   1)   -170.0343         0.013781   
    119. D(C   5,C   4,C   3,H  18)    -30.6905         0.011568   
    120. D(C   5,C   4,C   3,H  17)     92.0586         0.011568   
    121. D(H  19,C   4,C   3,C   2)    -21.8193         0.011568   
    122. D(C   5,C   4,C   3,C   2)   -148.6820         0.011568   
    123. D(H  20,C   4,C   3,H  18)   -148.7633         0.011568   
    124. D(H  20,C   4,C   3,H  17)    -26.0142         0.011568   
    125. D(H  20,C   4,C   3,C   2)     93.2453         0.011568   
    126. D(H  19,C   4,C   3,H  18)     96.1721         0.011568   
    127. D(H  19,C   4,C   3,H  17)   -141.0787         0.011568   
    128. D(H  22,C   5,C   4,H  20)    155.5004         0.013459   
    129. D(H  22,C   5,C   4,H  19)    -90.5611         0.013459   
    130. D(H  22,C   5,C   4,C   3)     35.3065         0.013459   
    131. D(H  21,C   5,C   4,H  20)    -86.0311         0.013459   
    132. D(H  21,C   5,C   4,H  19)     27.9074         0.013459   
    133. D(H  21,C   5,C   4,C   3)    153.7750         0.013459   
    134. D(C   6,C   5,C   4,H  20)     30.3024         0.013459   
    135. D(C   6,C   5,C   4,H  19)    144.2408         0.013459   
    136. D(C   6,C   5,C   4,C   3)    -89.8915         0.013459   
    137. D(H  24,C   6,C   5,H  22)    -80.5412         0.012526   
    138. D(H  24,C   6,C   5,H  21)    163.1419         0.012526   
    139. D(H  24,C   6,C   5,C   4)     44.9374         0.012526   
    140. D(H  23,C   6,C   5,H  22)     39.0293         0.012526   
    141. D(H  23,C   6,C   5,H  21)    -77.2876         0.012526   
    142. D(H  23,C   6,C   5,C   4)    164.5078         0.012526   
    143. D(C   7,C   6,C   5,H  22)    158.0159         0.012526   
    144. D(C   7,C   6,C   5,H  21)     41.6990         0.012526   
    145. D(C   7,C   6,C   5,C   4)    -76.5056         0.012526   
    146. D(H  26,C   7,C   6,H  23)     93.6005         0.013277   
    147. D(H  26,C   7,C   6,C   5)    -27.4933         0.013277   
    148. D(H  25,C   7,C   6,H  24)    -28.5938         0.013277   
    149. D(H  25,C   7,C   6,H  23)   -146.4738         0.013277   
    150. D(H  25,C   7,C   6,C   5)     92.4324         0.013277   
    151. D(C   8,C   7,C   6,H  24)     93.8172         0.013277   
    152. D(C   8,C   7,C   6,H  23)    -24.0628         0.013277   
    153. D(H  26,C   7,C   6,H  24)   -148.5194         0.013277   
    154. D(C   8,C   7,C   6,C   5)   -145.1566         0.013277   
    155. D(H  28,C   8,C   7,H  26)    -35.6823         0.011811   
    156. D(H  28,C   8,C   7,C   6)     85.7690         0.011811   
    157. D(H  27,C   8,C   7,H  26)     80.0340         0.011811   
    158. D(H  27,C   8,C   7,H  25)    -33.9967         0.011811   
    159. D(H  27,C   8,C   7,C   6)   -158.5147         0.011811   
    160. D(C   9,C   8,C   7,H  26)   -160.4142         0.011811   
    161. D(H  28,C   8,C   7,H  25)   -149.7131         0.011811   
    162. D(C   9,C   8,C   7,H  25)     85.5550         0.011811   
    163. D(C   9,C   8,C   7,C   6)    -38.9629         0.011811   
    164. D(H  31,C   9,C   8,H  28)    114.9064         0.012696   
    165. D(H  31,C   9,C   8,H  27)     -1.5360         0.012696   
    166. D(H  31,C   9,C   8,C   7)   -122.6481         0.012696   
    167. D(H  30,C   9,C   8,H  28)     -5.6794         0.012696   
    168. D(H  30,C   9,C   8,H  27)   -122.1218         0.012696   
    169. D(H  30,C   9,C   8,C   7)    116.7661         0.012696   
    170. D(H  29,C   9,C   8,H  28)   -126.3588         0.012696   
    171. D(H  29,C   9,C   8,H  27)    117.1988         0.012696   
    172. D(H  29,C   9,C   8,C   7)     -3.9133         0.012696   
    -----------------------------------------------------------------

Number of atoms                         .... 32
Number of degrees of freedom            .... 172

Time needed for optimization step       :     3.34 sec

         *************************************************************
         *                GEOMETRY OPTIMIZATION CYCLE   1            *
         *************************************************************
---------------------------------
CARTESIAN COORDINATES (ANGSTROEM)
---------------------------------
  C     -3.805300    1.374733    0.308099
  C     -4.087477    0.048356   -0.334001
  C     -2.876927   -0.824053   -0.488204
  C     -1.632852   -0.258142    0.129590
  C     -0.464677   -1.125876   -0.325246
  C      0.620098   -1.187067    0.713534
  C      1.635161   -0.080492    0.525963
  C      2.563961   -0.391231   -0.616863
  C      3.969658    0.122167   -0.341472
  C      3.951012    1.466781    0.348404
  H     -3.715824    2.172170   -0.473089
  H     -4.713232    1.638559    0.907960
  H     -2.930599    1.371957    0.981448
  H     -4.495276    0.236481   -1.349003
  H     -4.881777   -0.511491    0.212104
  H     -2.640446   -1.049060   -1.556029
  H     -3.055597   -1.814394   -0.000165
  H     -1.408391    0.768358   -0.255616
  H     -1.764110   -0.279670    1.227673
  H     -0.818216   -2.139702   -0.644331
  H      0.001080   -0.691158   -1.245661
  H      1.187088   -2.143533    0.587899
  H      0.204360   -1.179662    1.741360
  H      2.256458    0.037836    1.429353
  H      1.106679    0.871200    0.335389
  H      2.212753    0.030063   -1.572098
  H      2.673838   -1.486222   -0.774156
  H      4.528287    0.242513   -1.295034
  H      4.521599   -0.652241    0.244036
  H      2.924862    1.855598    0.460674
  H      4.418864    1.344451    1.357795
  H      4.514942    2.232769   -0.240311

----------------------------
CARTESIAN COORDINATES (A.U.)
----------------------------
  NO LB      ZA    FRAG     MASS         X           Y           Z
   0 C     6.0000    0    12.011   -7.190975    2.597869    0.582223
   1 C     6.0000    0    12.011   -7.724212    0.091380   -0.631170
   2 C     6.0000    0    12.011   -5.436604   -1.557234   -0.922572
   3 C     6.0000    0    12.011   -3.085643   -0.487818    0.244890
   4 C     6.0000    0    12.011   -0.878112   -2.127597   -0.614626
   5 C     6.0000    0    12.011    1.171815   -2.243232    1.348384
   6 C     6.0000    0    12.011    3.090006   -0.152108    0.993926
   7 C     6.0000    0    12.011    4.845184   -0.739319   -1.165702
   8 C     6.0000    0    12.011    7.501566    0.230862   -0.645289
   9 C     6.0000    0    12.011    7.466331    2.771814    0.658388
  10 H     1.0000    0     1.008   -7.021890    4.104806   -0.894009
  11 H     1.0000    0     1.008   -8.906718    3.096428    1.715796
  12 H     1.0000    0     1.008   -5.538030    2.592623    1.854668
  13 H     1.0000    0     1.008   -8.494841    0.446884   -2.549246
  14 H     1.0000    0     1.008   -9.225222   -0.966578    0.400818
  15 H     1.0000    0     1.008   -4.989720   -1.982436   -2.940469
  16 H     1.0000    0     1.008   -5.774242   -3.428708   -0.000312
  17 H     1.0000    0     1.008   -2.661473    1.451986   -0.483044
  18 H     1.0000    0     1.008   -3.333685   -0.528500    2.319966
  19 H     1.0000    0     1.008   -1.546204   -4.043451   -1.217609
  20 H     1.0000    0     1.008    0.002041   -1.306099   -2.353958
  21 H     1.0000    0     1.008    2.243271   -4.050690    1.110968
  22 H     1.0000    0     1.008    0.386184   -2.229238    3.290694
  23 H     1.0000    0     1.008    4.264088    0.071500    2.701086
  24 H     1.0000    0     1.008    2.091320    1.646329    0.633793
  25 H     1.0000    0     1.008    4.181497    0.056811   -2.970835
  26 H     1.0000    0     1.008    5.052822   -2.808553   -1.462943
  27 H     1.0000    0     1.008    8.557222    0.458283   -2.447260
  28 H     1.0000    0     1.008    8.544584   -1.232557    0.461161
  29 H     1.0000    0     1.008    5.527188    3.506572    0.870548
  30 H     1.0000    0     1.008    8.350443    2.540644    2.565861
  31 H     1.0000    0     1.008    8.532004    4.219322   -0.454122

--------------------------------
INTERNAL COORDINATES (ANGSTROEM)
--------------------------------
 C      0   0   0     0.000000000000     0.00000000     0.00000000
 C      1   0   0     1.500397352523     0.00000000     0.00000000
 C      2   1   0     1.500102440165   113.97506906     0.00000000
 C      3   2   1     1.499882426053   114.05284073     4.82843131
 C      4   3   2     1.524621563627   107.33199879   189.96574367
 C      5   4   3     1.503178308620   111.71217612   211.31803228
 C      6   5   4     1.513289134513   111.63166196   270.10847425
 C      7   6   5     1.505084526662   110.92097925   283.49440709
 C      8   7   6     1.521644427944   111.28483918   214.84337345
 C      9   8   7     1.511377973138   111.80088227   321.03705070
 H      1   2   3     1.119895716078   110.24174317    99.21905207
 H      1   2   3     1.119722239764   106.56233178   213.46666439
 H      1   2   3     1.103860689298   114.06994540   333.08980273
 H      2   1   3     1.109918961019   108.09652888   240.53053681
 H      2   1   3     1.114707057677   111.61318168   124.64901573
 H      3   2   1     1.116602724354   112.73086277   242.39141408
 H      3   2   1     1.118427615316   109.94949314   124.57739847
 H      4   3   2     1.119137459366   111.75616305   305.06601786
 H      4   3   2     1.106109575149   107.64599595    69.12760963
 H      5   4   3     1.120110807028   110.99518833   338.18070457
 H      5   4   3     1.119407474871   110.06387367    93.24526723
 H      6   5   4     1.118967838001   108.83681628   153.77500826
 H      6   5   4     1.108746682045   111.70050259    35.30652954
 H      7   6   5     1.102780562892   110.78284823   164.50784932
 H      7   6   5     1.105137700318   109.28810468    44.93736534
 H      8   7   6     1.101503335866   112.50445330    92.43240306
 H      8   7   6     1.111674112795   111.82617302   332.50674075
 H      9   8   7     1.111678913716   110.21250879   201.48531965
 H      9   8   7     1.116765971907   108.51150382    85.76896477
 H     10   9   8     1.103071636336   111.80983989   356.08672660
 H     10   9   8     1.119249888847   108.01454177   116.76611261
 H     10   9   8     1.118633099934   111.26952709   237.35189986

---------------------------
INTERNAL COORDINATES (A.U.)
---------------------------
 C      0   0   0     0.000000000000     0.00000000     0.00000000
 C      1   0   0     2.835340088329     0.00000000     0.00000000
 C      2   1   0     2.834782784739   113.97506906     0.00000000
 C      3   2   1     2.834367018321   114.05284073     4.82843131
 C      4   3   2     2.881117213126   107.33199879   189.96574367
 C      5   4   3     2.840595333743   111.71217612   211.31803228
 C      6   5   4     2.859702025668   111.63166196   270.10847425
 C      7   6   5     2.844197563793   110.92097925   283.49440709
 C      8   7   6     2.875491242022   111.28483918   214.84337345
 C      9   8   7     2.856090454073   111.80088227   321.03705070
 H      1   2   3     2.116296201938   110.24174317    99.21905207
 H      1   2   3     2.115968379214   106.56233178   213.46666439
 H      1   2   3     2.085994392775   114.06994540   333.08980273
 H      2   1   3     2.097442867173   108.09652888   240.53053681
 H      2   1   3     2.106491058558   111.61318168   124.64901573
 H      3   2   1     2.110073349420   112.73086277   242.39141408
 H      3   2   1     2.113521893562   109.94949314   124.57739847
 H      4   3   2     2.114863304415   111.75616305   305.06601786
 H      4   3   2     2.090244171140   107.64599595    69.12760963
 H      5   4   3     2.116702664929   110.99518833   338.18070457
 H      5   4   3     2.115373559771   110.06387367    93.24526723
 H      6   5   4     2.114542766488   108.83681628   153.77500826
 H      6   5   4     2.095227580958   111.70050259    35.30652954
 H      7   6   5     2.083953249678   110.78284823   164.50784932
 H      7   6   5     2.088407593872   109.28810468    44.93736534
 H      8   7   6     2.081539640388   112.50445330    92.43240306
 H      8   7   6     2.100759623353   111.82617302   332.50674075
 H      9   8   7     2.100768695778   110.21250879   201.48531965
 H      9   8   7     2.110381842586   108.51150382    85.76896477
 H     10   9   8     2.084503298771   111.80983989   356.08672660
 H     10   9   8     2.115075765343   108.01454177   116.76611261
 H     10   9   8     2.113910203216   111.26952709   237.35189986

---------------------
BASIS SET INFORMATION
---------------------
There are 2 groups of distinct atoms

 Group   1 Type C   : 7s4p1d contracted to 3s2p1d pattern {511/31/1}
 Group   2 Type H   : 4s contracted to 2s pattern {31}

Atom   0C    basis set group =>   1
Atom   1C    basis set group =>   1
Atom   2C    basis set group =>   1
Atom   3C    basis set group =>   1
Atom   4C    basis set group =>   1
Atom   5C    basis set group =>   1
Atom   6C    basis set group =>   1
Atom   7C    basis set group =>   1
Atom   8C    basis set group =>   1
Atom   9C    basis set group =>   1
Atom  10H    basis set group =>   2
Atom  11H    basis set group =>   2
Atom  12H    basis set group =>   2
Atom  13H    basis set group =>   2
Atom  14H    basis set group =>   2
Atom  15H    basis set group =>   2
Atom  16H    basis set group =>   2
Atom  17H    basis set group =>   2
Atom  18H    basis set group =>   2
Atom  19H    basis set group =>   2
Atom  20H    basis set group =>   2
Atom  21H    basis set group =>   2
Atom  22H    basis set group =>   2
Atom  23H    basis set group =>   2
Atom  24H    basis set group =>   2
Atom  25H    basis set group =>   2
Atom  26H    basis set group =>   2
Atom  27H    basis set group =>   2
Atom  28H    basis set group =>   2
Atom  29H    basis set group =>   2
Atom  30H    basis set group =>   2
Atom  31H    basis set group =>   2
---------------------------------
AUXILIARY/J BASIS SET INFORMATION
---------------------------------
There are 2 groups of distinct atoms

 Group   1 Type C   : 12s5p4d2f1g contracted to 6s4p3d1f1g pattern {711111/2111/211/2/1}
 Group   2 Type H   : 5s2p1d contracted to 3s1p1d pattern {311/2/1}

Atom   0C    basis set group =>   1
Atom   1C    basis set group =>   1
Atom   2C    basis set group =>   1
Atom   3C    basis set group =>   1
Atom   4C    basis set group =>   1
Atom   5C    basis set group =>   1
Atom   6C    basis set group =>   1
Atom   7C    basis set group =>   1
Atom   8C    basis set group =>   1
Atom   9C    basis set group =>   1
Atom  10H    basis set group =>   2
Atom  11H    basis set group =>   2
Atom  12H    basis set group =>   2
Atom  13H    basis set group =>   2
Atom  14H    basis set group =>   2
Atom  15H    basis set group =>   2
Atom  16H    basis set group =>   2
Atom  17H    basis set group =>   2
Atom  18H    basis set group =>   2
Atom  19H    basis set group =>   2
Atom  20H    basis set group =>   2
Atom  21H    basis set group =>   2
Atom  22H    basis set group =>   2
Atom  23H    basis set group =>   2
Atom  24H    basis set group =>   2
Atom  25H    basis set group =>   2
Atom  26H    basis set group =>   2
Atom  27H    basis set group =>   2
Atom  28H    basis set group =>   2
Atom  29H    basis set group =>   2
Atom  30H    basis set group =>   2
Atom  31H    basis set group =>   2
------------------------------------------------------------------------------
                           ORCA GTO INTEGRAL CALCULATION
------------------------------------------------------------------------------

                         BASIS SET STATISTICS AND STARTUP INFO

 # of primitive gaussian shells          ...  208
 # of primitive gaussian functions       ...  328
 # of contracted shells                  ...  104
 # of contracted basis functions         ...  184
 Highest angular momentum                ...    2
 Maximum contraction depth               ...    5
 Integral package used                   ... LIBINT
 Integral threshhold            Thresh   ...  1.000e-12
 Primitive cut-off              TCut     ...  1.000e-14


------------------------------ INTEGRAL EVALUATION ----------------------------


 * One electron integrals 
 Pre-screening matrix                    ... done
 Shell pair data                         ... done (   0.001 sec)

-------------------------------------------------------------------------------
                                 ORCA SCF
-------------------------------------------------------------------------------

------------
SCF SETTINGS
------------
Hamiltonian:
 Density Functional     Method          .... DFT(GTOs)
 Exchange Functional    Exchange        .... B88
   X-Alpha parameter    XAlpha          ....  0.666667
   Becke's b parameter  XBeta           ....  0.004200
 Correlation Functional Correlation     .... LYP
 LDA part of GGA corr.  LDAOpt          .... VWN-5
 Gradients option       PostSCFGGA      .... off
 Hybrid DFT is turned on
   Fraction HF Exchange ScalHFX         ....  0.200000
   Scaling of DF-GGA-X  ScalDFX         ....  0.720000
   Scaling of DF-GGA-C  ScalDFC         ....  0.810000
   Scaling of DF-LDA-C  ScalLDAC        ....  1.000000
   Perturbative correction              ....  0.000000
   Density functional embedding theory  .... OFF
   NL short-range parameter             ....  4.800000


General Settings:
 Integral files         IntName         .... orca4
 Hartree-Fock type      HFTyp           .... UHF
 Total Charge           Charge          ....    0
 Multiplicity           Mult            ....    1
 Number of Electrons    NEL             ....   82
 Basis Dimension        Dim             ....  184
 Nuclear Repulsion      ENuc            ....    553.1528419478 Eh

Convergence Acceleration:
 DIIS                   CNVDIIS         .... on
   Start iteration      DIISMaxIt       ....    12
   Startup error        DIISStart       ....  0.200000
   # of expansion vecs  DIISMaxEq       ....     5
   Bias factor          DIISBfac        ....   1.050
   Max. coefficient     DIISMaxC        ....  10.000
 Newton-Raphson         CNVNR           .... off
 SOSCF                  CNVSOSCF        .... off
 Level Shifting         CNVShift        .... on
   Level shift para.    LevelShift      ....    0.2500
   Turn off err/grad.   ShiftErr        ....    0.0010
 Zerner damping         CNVZerner       .... off
 Static damping         CNVDamp         .... on
   Fraction old density DampFac         ....    0.7000
   Max. Damping (<1)    DampMax         ....    0.9800
   Min. Damping (>=0)   DampMin         ....    0.0000
   Turn off err/grad.   DampErr         ....    0.1000
 Fernandez-Rico         CNVRico         .... off

SCF Procedure:
 Maximum # iterations   MaxIter         ....   500
 SCF integral mode      SCFMode         .... Direct
   Integral package                     .... LIBINT
 Reset frequency        DirectResetFreq ....    20
 Integral Threshold     Thresh          ....  1.000e-12 Eh
 Primitive CutOff       TCut            ....  1.000e-14 Eh

Convergence Tolerance:
 Convergence Check Mode ConvCheckMode   .... Total+1el-Energy
 Convergence forced     ConvForced      .... 0
 Energy Change          TolE            ....  1.000e-09 Eh
 1-El. energy change                    ....  1.000e-06 Eh
 DIIS Error             TolErr          ....  1.000e-08


Diagonalization of the overlap matrix:
Smallest eigenvalue                        ... 9.398e-04
Time for diagonalization                   ...    0.004 sec
Threshold for overlap eigenvalues          ... 1.000e-08
Number of eigenvalues below threshold      ... 0
Time for construction of square roots      ...    5.188 sec
Total time needed                          ...    5.192 sec

-------------------
DFT GRID GENERATION
-------------------

General Integration Accuracy     IntAcc      ...  4.340
Radial Grid Type                 RadialGrid  ... Gauss-Chebyshev
Angular Grid (max. acc.)         AngularGrid ... Lebedev-110
Angular grid pruning method      GridPruning ... 3 (G Style)
Weight generation scheme         WeightScheme... Becke
Basis function cutoff            BFCut       ...    1.0000e-12
Integration weight cutoff        WCut        ...    1.0000e-14
Grids for H and He will be reduced by one unit

# of grid points (after initial pruning)     ...  34028 (   0.0 sec)
# of grid points (after weights+screening)   ...  30547 (   0.2 sec)
nearest neighbour list constructed           ...    0.0 sec
Grid point re-assignment to atoms done       ...    0.0 sec
Grid point division into batches done        ...    0.0 sec
Reduced shell lists constructed in    0.6 sec

Total number of grid points                  ...    30547
Total number of batches                      ...      492
Average number of points per batch           ...       62
Average number of grid points per atom       ...      955
Average number of shells per batch           ...    69.15 (66.49%)
Average number of basis functions per batch  ...   118.36 (64.33%)
Average number of large shells per batch     ...    51.38 (74.29%)
Average number of large basis fcns per batch ...    88.44 (74.72%)
Maximum spatial batch extension              ...  21.04, 22.03, 20.05 au
Average spatial batch extension              ...   3.19,  3.45,  3.46 au

Time for grid setup =    6.257 sec

------------------------------
INITIAL GUESS: MODEL POTENTIAL
------------------------------
Loading Hartree-Fock densities                     ... done
Calculating cut-offs                               ... done
Setting up the integral package                    ... done
Initializing the effective Hamiltonian             ... done
Starting the Coulomb interaction                   ... done (   0.2 sec)
Reading the grid                                   ... done
Mapping shells                                     ... done
Starting the XC term evaluation                    ... done (   0.4 sec)
  promolecular density results
     # of electrons  =     81.995640610
     EX              =    -57.992665851
     EC              =     -2.614332761
     EX+EC           =    -60.606998612
Transforming the Hamiltonian                       ... done (   0.0 sec)
Diagonalizing the Hamiltonian                      ... done (   0.0 sec)
Back transforming the eigenvectors                 ... done (   0.0 sec)
Now organizing SCF variables                       ... done
                      ------------------
                      INITIAL GUESS DONE (   7.0 sec)
                      ------------------
--------------
SCF ITERATIONS
--------------
ITER       Energy         Delta-E        Max-DP      RMS-DP      [F,P]     Damp
               ***  Starting incremental Fock matrix formation  ***
  0   -393.2564011966   0.000000000000 0.04175761  0.00144857  0.1656562 0.7000
  1   -393.4395185525  -0.183117355975 0.02559174  0.00102754  0.0850792 0.7000
                               ***Turning on DIIS***
  2   -393.5117951298  -0.072276577300 0.03529884  0.00169694  0.0312634 0.0000
  3   -393.6102606636  -0.098465533790 0.01673094  0.00069093  0.0471174 0.0000
  4   -393.6426990338  -0.032438370220 0.00368708  0.00020793  0.0097914 0.0000
  5   -393.6442437379  -0.001544704096 0.00121277  0.00007260  0.0020322 0.0000
  6   -393.6443335369  -0.000089798923 0.00072264  0.00003762  0.0006339 0.0000
  7   -393.6443407440  -0.000007207108 0.00021634  0.00000445  0.0003500 0.0000
  8   -393.6443414436  -0.000000699596 0.00003029  0.00000132  0.0000623 0.0000
  9   -393.6443414746  -0.000000031021 0.00001601  0.00000051  0.0000265 0.0000
 10   -393.6443414798  -0.000000005199 0.00000502  0.00000015  0.0000094 0.0000
 11   -393.6443414804  -0.000000000577 0.00000136  0.00000006  0.0000024 0.0000
 12   -393.6443414804  -0.000000000034 0.00000045  0.00000001  0.0000008 0.0000
 13   -393.6443414804  -0.000000000052 0.00000015  0.00000000  0.0000002 0.0000
 14   -393.6443414805  -0.000000000019 0.00000005  0.00000000  0.0000001 0.0000
                 **** Energy Check signals convergence ****

 Fermi smearing  (ALPHA): E(HOMO(Eh)) = -0.289715 MUE = -0.120030 gap=   9.235 eV
 Fermi smearing   (BETA): E(HOMO(Eh)) = -0.289715 MUE = -0.120030 gap=   9.235 eV

N_FOD(alpha) =  0.000000
 N_FOD(beta) =  0.000000
       N_FOD =  0.000000

               *****************************************************
               *                     SUCCESS                       *
               *           SCF CONVERGED AFTER  15 CYCLES          *
               *****************************************************

Setting up the final grid:

General Integration Accuracy     IntAcc      ...  4.670
Radial Grid Type                 RadialGrid  ... Gauss-Chebyshev
Angular Grid (max. acc.)         AngularGrid ... Lebedev-302
Angular grid pruning method      GridPruning ... 3 (G Style)
Weight generation scheme         WeightScheme... Becke
Basis function cutoff            BFCut       ...    1.0000e-12
Integration weight cutoff        WCut        ...    1.0000e-14
Grids for H and He will be reduced by one unit

# of grid points (after initial pruning)     ... 136788 (   0.1 sec)
# of grid points (after weights+screening)   ... 120381 (   0.7 sec)
nearest neighbour list constructed           ...    0.0 sec
Grid point re-assignment to atoms done       ...    0.0 sec
Grid point division into batches done        ...    0.3 sec
Reduced shell lists constructed in    1.1 sec

Total number of grid points                  ...   120381
Total number of batches                      ...     1895
Average number of points per batch           ...       63
Average number of grid points per atom       ...     3762
Average number of shells per batch           ...    64.02 (61.56%)
Average number of basis functions per batch  ...   109.00 (59.24%)
Average number of large shells per batch     ...    46.92 (73.29%)
Average number of large basis fcns per batch ...    80.46 (73.82%)
Maximum spatial batch extension              ...  17.34, 19.58, 20.20 au
Average spatial batch extension              ...   2.14,  2.29,  2.33 au

Final grid set up in    4.8 sec
Final integration                            ... done (  10.2 sec)
Change in XC energy                          ...     0.000466357
Integrated number of electrons               ...    81.999994299
Previous integrated no of electrons          ...    82.002932459

----------------
TOTAL SCF ENERGY
----------------

Total Energy       :         -393.64387512 Eh          -10711.59441 eV

Components:
Nuclear Repulsion  :          553.15284195 Eh           15052.05406 eV
Electronic Energy  :         -946.79671707 Eh          -25763.64847 eV
One Electron Energy:        -1625.24427036 Eh          -44225.14496 eV
Two Electron Energy:          678.44755328 Eh           18461.49649 eV

Virial components:
Potential Energy   :         -783.39343089 Eh          -21317.21900 eV
Kinetic Energy     :          389.74955577 Eh           10605.62459 eV
Virial Ratio       :            2.00999185


DFT components:
N(Alpha)           :       40.999997149631 electrons
N(Beta)            :       40.999997149631 electrons
N(Total)           :       81.999994299262 electrons
E(X)               :      -47.196783894663 Eh       
E(C)               :       -3.093172018536 Eh       
E(XC)              :      -50.289955913199 Eh       
DFET-embed. en.    :        0.000000000000 Eh       

---------------
SCF CONVERGENCE
---------------

  Last Energy change         ...   -2.2396e-11  Tolerance :   1.0000e-09
  Last MAX-Density change    ...    7.7992e-09  Tolerance :   1.0000e-08
  Last RMS-Density change    ...    2.7846e-10  Tolerance :   1.0000e-09
  Last DIIS Error            ...    1.5583e-08  Tolerance :   1.0000e-08

             **** THE GBW FILE WAS UPDATED (orca4.gbw) ****
             **** DENSITY FILE WAS UPDATED (orca4.scfp) ****
             **** ENERGY FILE WAS UPDATED (orca4.en.tmp) ****
             **** THE GBW FILE WAS UPDATED (orca4.gbw) ****
             **** DENSITY FILE WAS UPDATED (orca4.scfp) ****
----------------
ORBITAL ENERGIES
----------------
                 SPIN UP ORBITALS
  NO   OCC          E(Eh)            E(eV) 
   0   1.0000     -10.167257      -276.6651 
   1   1.0000     -10.165995      -276.6308 
   2   1.0000     -10.164402      -276.5874 
   3   1.0000     -10.164172      -276.5812 
   4   1.0000     -10.164063      -276.5782 
   5   1.0000     -10.163809      -276.5713 
   6   1.0000     -10.163606      -276.5658 
   7   1.0000     -10.162791      -276.5436 
   8   1.0000     -10.162256      -276.5290 
   9   1.0000     -10.161528      -276.5092 
  10   1.0000      -0.815531       -22.1917 
  11   1.0000      -0.797107       -21.6904 
  12   1.0000      -0.761792       -20.7294 
  13   1.0000      -0.718805       -19.5597 
  14   1.0000      -0.673529       -18.3277 
  15   1.0000      -0.642259       -17.4768 
  16   1.0000      -0.615610       -16.7516 
  17   1.0000      -0.573211       -15.5979 
  18   1.0000      -0.542474       -14.7615 
  19   1.0000      -0.534337       -14.5400 
  20   1.0000      -0.478978       -13.0337 
  21   1.0000      -0.474143       -12.9021 
  22   1.0000      -0.459839       -12.5128 
  23   1.0000      -0.443121       -12.0579 
  24   1.0000      -0.428311       -11.6549 
  25   1.0000      -0.418505       -11.3881 
  26   1.0000      -0.407237       -11.0815 
  27   1.0000      -0.398718       -10.8497 
  28   1.0000      -0.384453       -10.4615 
  29   1.0000      -0.373470       -10.1626 
  30   1.0000      -0.373048       -10.1512 
  31   1.0000      -0.352387        -9.5889 
  32   1.0000      -0.342804        -9.3282 
  33   1.0000      -0.333291        -9.0693 
  34   1.0000      -0.325955        -8.8697 
  35   1.0000      -0.323340        -8.7985 
  36   1.0000      -0.317797        -8.6477 
  37   1.0000      -0.304334        -8.2813 
  38   1.0000      -0.300669        -8.1816 
  39   1.0000      -0.295662        -8.0454 
  40   1.0000      -0.289715        -7.8835 
  41   0.0000       0.049654         1.3512 
  42   0.0000       0.058528         1.5926 
  43   0.0000       0.065818         1.7910 
  44   0.0000       0.073983         2.0132 
  45   0.0000       0.080286         2.1847 
  46   0.0000       0.086665         2.3583 
  47   0.0000       0.094557         2.5730 
  48   0.0000       0.097144         2.6434 
  49   0.0000       0.109792         2.9876 
  50   0.0000       0.112945         3.0734 
  51   0.0000       0.123517         3.3611 
  52   0.0000       0.139584         3.7983 
  53   0.0000       0.142940         3.8896 
  54   0.0000       0.147453         4.0124 
  55   0.0000       0.155229         4.2240 
  56   0.0000       0.167178         4.5492 
  57   0.0000       0.180696         4.9170 
  58   0.0000       0.191837         5.2201 
  59   0.0000       0.196114         5.3365 
  60   0.0000       0.199040         5.4162 
  61   0.0000       0.203594         5.5401 
  62   0.0000       0.211167         5.7462 
  63   0.0000       0.227597         6.1932 
  64   0.0000       0.240440         6.5427 
  65   0.0000       0.247760         6.7419 
  66   0.0000       0.260132         7.0786 
  67   0.0000       0.276463         7.5229 
  68   0.0000       0.283639         7.7182 
  69   0.0000       0.295964         8.0536 
  70   0.0000       0.301958         8.2167 
  71   0.0000       0.326006         8.8711 
  72   0.0000       0.418281        11.3820 
  73   0.0000       0.428835        11.6692 
  74   0.0000       0.433966        11.8088 
  75   0.0000       0.445452        12.1214 
  76   0.0000       0.461018        12.5449 
  77   0.0000       0.465576        12.6690 
  78   0.0000       0.479657        13.0521 
  79   0.0000       0.498817        13.5735 
  80   0.0000       0.510677        13.8962 
  81   0.0000       0.523945        14.2573 
  82   0.0000       0.540465        14.7068 
  83   0.0000       0.551505        15.0072 
  84   0.0000       0.583733        15.8842 
  85   0.0000       0.598556        16.2875 
  86   0.0000       0.614226        16.7140 
  87   0.0000       0.616657        16.7801 
  88   0.0000       0.626987        17.0612 
  89   0.0000       0.633589        17.2408 
  90   0.0000       0.636620        17.3233 
  91   0.0000       0.649185        17.6652 
  92   0.0000       0.650789        17.7089 
  93   0.0000       0.655673        17.8418 
  94   0.0000       0.667369        18.1600 
  95   0.0000       0.671988        18.2857 
  96   0.0000       0.678707        18.4685 
  97   0.0000       0.680724        18.5235 
  98   0.0000       0.691269        18.8104 
  99   0.0000       0.697993        18.9933 
 100   0.0000       0.702700        19.1214 
 101   0.0000       0.706390        19.2219 
 102   0.0000       0.712562        19.3898 
 103   0.0000       0.715085        19.4585 
 104   0.0000       0.716050        19.4847 
 105   0.0000       0.716743        19.5036 
 106   0.0000       0.719643        19.5825 
 107   0.0000       0.723794        19.6954 
 108   0.0000       0.728067        19.8117 
 109   0.0000       0.729940        19.8627 
 110   0.0000       0.733486        19.9592 
 111   0.0000       0.739085        20.1115 
 112   0.0000       0.748061        20.3558 
 113   0.0000       0.754722        20.5370 
 114   0.0000       0.759041        20.6546 
 115   0.0000       0.781501        21.2657 
 116   0.0000       0.783246        21.3132 
 117   0.0000       0.788154        21.4468 
 118   0.0000       0.798025        21.7154 
 119   0.0000       0.805642        21.9226 
 120   0.0000       0.825481        22.4625 
 121   0.0000       0.834121        22.6976 
 122   0.0000       0.898565        24.4512 
 123   0.0000       0.908920        24.7330 
 124   0.0000       0.929980        25.3060 
 125   0.0000       0.941893        25.6302 
 126   0.0000       0.971419        26.4337 
 127   0.0000       1.054539        28.6955 
 128   0.0000       1.082579        29.4585 
 129   0.0000       1.100695        29.9514 
 130   0.0000       1.131676        30.7945 
 131   0.0000       1.150741        31.3133 
 132   0.0000       1.211467        32.9657 
 133   0.0000       1.298085        35.3227 
 134   0.0000       1.395863        37.9834 
 135   0.0000       1.402716        38.1698 
 136   0.0000       1.514816        41.2202 
 137   0.0000       1.570006        42.7220 
 138   0.0000       1.613929        43.9172 
 139   0.0000       1.663805        45.2744 
 140   0.0000       1.689679        45.9785 
 141   0.0000       1.755220        47.7620 
 142   0.0000       1.766728        48.0751 
 143   0.0000       1.792695        48.7817 
 144   0.0000       1.827880        49.7391 
 145   0.0000       1.848617        50.3034 
 146   0.0000       1.883135        51.2427 
 147   0.0000       1.901706        51.7480 
 148   0.0000       1.909977        51.9731 
 149   0.0000       1.922927        52.3255 
 150   0.0000       1.937447        52.7206 
 151   0.0000       1.953979        53.1705 
 152   0.0000       1.969376        53.5894 
 153   0.0000       1.974032        53.7161 
 154   0.0000       2.000628        54.4399 
 155   0.0000       2.018828        54.9351 
 156   0.0000       2.033387        55.3313 
 157   0.0000       2.052534        55.8523 
 158   0.0000       2.067450        56.2582 
 159   0.0000       2.087777        56.8113 
 160   0.0000       2.121902        57.7399 
 161   0.0000       2.151264        58.5389 
 162   0.0000       2.161552        58.8188 
 163   0.0000       2.205794        60.0227 
 164   0.0000       2.229458        60.6666 
 165   0.0000       2.257353        61.4257 
 166   0.0000       2.274773        61.8997 
 167   0.0000       2.290287        62.3219 
 168   0.0000       2.312847        62.9358 
 169   0.0000       2.343490        63.7696 
 170   0.0000       2.358901        64.1890 
 171   0.0000       2.380007        64.7633 
 172   0.0000       2.409873        65.5760 
 173   0.0000       2.426034        66.0157 
 174   0.0000       2.463881        67.0456 
 175   0.0000       2.525352        68.7183 
 176   0.0000       2.567159        69.8559 
 177   0.0000       2.605590        70.9017 
 178   0.0000       2.616962        71.2112 
 179   0.0000       2.655941        72.2718 
 180   0.0000       2.711132        73.7737 
 181   0.0000       2.755995        74.9944 
 182   0.0000       2.799559        76.1799 
 183   0.0000       2.838168        77.2305 

                 SPIN DOWN ORBITALS
  NO   OCC          E(Eh)            E(eV) 
   0   1.0000     -10.167257      -276.6651 
   1   1.0000     -10.165995      -276.6308 
   2   1.0000     -10.164402      -276.5874 
   3   1.0000     -10.164172      -276.5812 
   4   1.0000     -10.164063      -276.5782 
   5   1.0000     -10.163809      -276.5713 
   6   1.0000     -10.163606      -276.5658 
   7   1.0000     -10.162791      -276.5436 
   8   1.0000     -10.162256      -276.5290 
   9   1.0000     -10.161528      -276.5092 
  10   1.0000      -0.815531       -22.1917 
  11   1.0000      -0.797107       -21.6904 
  12   1.0000      -0.761792       -20.7294 
  13   1.0000      -0.718805       -19.5597 
  14   1.0000      -0.673529       -18.3277 
  15   1.0000      -0.642259       -17.4768 
  16   1.0000      -0.615610       -16.7516 
  17   1.0000      -0.573211       -15.5979 
  18   1.0000      -0.542474       -14.7615 
  19   1.0000      -0.534337       -14.5400 
  20   1.0000      -0.478978       -13.0337 
  21   1.0000      -0.474143       -12.9021 
  22   1.0000      -0.459839       -12.5128 
  23   1.0000      -0.443121       -12.0579 
  24   1.0000      -0.428311       -11.6549 
  25   1.0000      -0.418505       -11.3881 
  26   1.0000      -0.407237       -11.0815 
  27   1.0000      -0.398718       -10.8497 
  28   1.0000      -0.384453       -10.4615 
  29   1.0000      -0.373470       -10.1626 
  30   1.0000      -0.373048       -10.1512 
  31   1.0000      -0.352387        -9.5889 
  32   1.0000      -0.342804        -9.3282 
  33   1.0000      -0.333291        -9.0693 
  34   1.0000      -0.325955        -8.8697 
  35   1.0000      -0.323340        -8.7985 
  36   1.0000      -0.317797        -8.6477 
  37   1.0000      -0.304334        -8.2813 
  38   1.0000      -0.300669        -8.1816 
  39   1.0000      -0.295662        -8.0454 
  40   1.0000      -0.289715        -7.8835 
  41   0.0000       0.049654         1.3512 
  42   0.0000       0.058528         1.5926 
  43   0.0000       0.065818         1.7910 
  44   0.0000       0.073983         2.0132 
  45   0.0000       0.080286         2.1847 
  46   0.0000       0.086665         2.3583 
  47   0.0000       0.094557         2.5730 
  48   0.0000       0.097144         2.6434 
  49   0.0000       0.109792         2.9876 
  50   0.0000       0.112945         3.0734 
  51   0.0000       0.123517         3.3611 
  52   0.0000       0.139584         3.7983 
  53   0.0000       0.142940         3.8896 
  54   0.0000       0.147453         4.0124 
  55   0.0000       0.155229         4.2240 
  56   0.0000       0.167178         4.5492 
  57   0.0000       0.180696         4.9170 
  58   0.0000       0.191837         5.2201 
  59   0.0000       0.196114         5.3365 
  60   0.0000       0.199040         5.4162 
  61   0.0000       0.203594         5.5401 
  62   0.0000       0.211167         5.7462 
  63   0.0000       0.227597         6.1932 
  64   0.0000       0.240440         6.5427 
  65   0.0000       0.247760         6.7419 
  66   0.0000       0.260132         7.0786 
  67   0.0000       0.276463         7.5229 
  68   0.0000       0.283639         7.7182 
  69   0.0000       0.295964         8.0536 
  70   0.0000       0.301958         8.2167 
  71   0.0000       0.326006         8.8711 
  72   0.0000       0.418281        11.3820 
  73   0.0000       0.428835        11.6692 
  74   0.0000       0.433966        11.8088 
  75   0.0000       0.445452        12.1214 
  76   0.0000       0.461018        12.5449 
  77   0.0000       0.465576        12.6690 
  78   0.0000       0.479657        13.0521 
  79   0.0000       0.498817        13.5735 
  80   0.0000       0.510677        13.8962 
  81   0.0000       0.523945        14.2573 
  82   0.0000       0.540465        14.7068 
  83   0.0000       0.551505        15.0072 
  84   0.0000       0.583733        15.8842 
  85   0.0000       0.598556        16.2875 
  86   0.0000       0.614226        16.7140 
  87   0.0000       0.616657        16.7801 
  88   0.0000       0.626987        17.0612 
  89   0.0000       0.633589        17.2408 
  90   0.0000       0.636620        17.3233 
  91   0.0000       0.649185        17.6652 
  92   0.0000       0.650789        17.7089 
  93   0.0000       0.655673        17.8418 
  94   0.0000       0.667369        18.1600 
  95   0.0000       0.671988        18.2857 
  96   0.0000       0.678707        18.4685 
  97   0.0000       0.680724        18.5235 
  98   0.0000       0.691269        18.8104 
  99   0.0000       0.697993        18.9933 
 100   0.0000       0.702700        19.1214 
 101   0.0000       0.706390        19.2219 
 102   0.0000       0.712562        19.3898 
 103   0.0000       0.715085        19.4585 
 104   0.0000       0.716050        19.4847 
 105   0.0000       0.716743        19.5036 
 106   0.0000       0.719643        19.5825 
 107   0.0000       0.723794        19.6954 
 108   0.0000       0.728067        19.8117 
 109   0.0000       0.729940        19.8627 
 110   0.0000       0.733486        19.9592 
 111   0.0000       0.739085        20.1115 
 112   0.0000       0.748061        20.3558 
 113   0.0000       0.754722        20.5370 
 114   0.0000       0.759041        20.6546 
 115   0.0000       0.781501        21.2657 
 116   0.0000       0.783246        21.3132 
 117   0.0000       0.788154        21.4468 
 118   0.0000       0.798025        21.7154 
 119   0.0000       0.805642        21.9226 
 120   0.0000       0.825481        22.4625 
 121   0.0000       0.834121        22.6976 
 122   0.0000       0.898565        24.4512 
 123   0.0000       0.908920        24.7330 
 124   0.0000       0.929980        25.3060 
 125   0.0000       0.941893        25.6302 
 126   0.0000       0.971419        26.4337 
 127   0.0000       1.054539        28.6955 
 128   0.0000       1.082579        29.4585 
 129   0.0000       1.100695        29.9514 
 130   0.0000       1.131676        30.7945 
 131   0.0000       1.150741        31.3133 
 132   0.0000       1.211467        32.9657 
 133   0.0000       1.298085        35.3227 
 134   0.0000       1.395863        37.9834 
 135   0.0000       1.402716        38.1698 
 136   0.0000       1.514816        41.2202 
 137   0.0000       1.570006        42.7220 
 138   0.0000       1.613929        43.9172 
 139   0.0000       1.663805        45.2744 
 140   0.0000       1.689679        45.9785 
 141   0.0000       1.755220        47.7620 
 142   0.0000       1.766728        48.0751 
 143   0.0000       1.792695        48.7817 
 144   0.0000       1.827880        49.7391 
 145   0.0000       1.848617        50.3034 
 146   0.0000       1.883135        51.2427 
 147   0.0000       1.901706        51.7480 
 148   0.0000       1.909977        51.9731 
 149   0.0000       1.922927        52.3255 
 150   0.0000       1.937447        52.7206 
 151   0.0000       1.953979        53.1705 
 152   0.0000       1.969376        53.5894 
 153   0.0000       1.974032        53.7161 
 154   0.0000       2.000628        54.4399 
 155   0.0000       2.018828        54.9351 
 156   0.0000       2.033387        55.3313 
 157   0.0000       2.052534        55.8523 
 158   0.0000       2.067450        56.2582 
 159   0.0000       2.087777        56.8113 
 160   0.0000       2.121902        57.7399 
 161   0.0000       2.151264        58.5389 
 162   0.0000       2.161552        58.8188 
 163   0.0000       2.205794        60.0227 
 164   0.0000       2.229458        60.6666 
 165   0.0000       2.257353        61.4257 
 166   0.0000       2.274773        61.8997 
 167   0.0000       2.290287        62.3219 
 168   0.0000       2.312847        62.9358 
 169   0.0000       2.343490        63.7696 
 170   0.0000       2.358901        64.1890 
 171   0.0000       2.380007        64.7633 
 172   0.0000       2.409873        65.5760 
 173   0.0000       2.426034        66.0157 
 174   0.0000       2.463881        67.0456 
 175   0.0000       2.525352        68.7183 
 176   0.0000       2.567159        69.8559 
 177   0.0000       2.605590        70.9017 
 178   0.0000       2.616962        71.2112 
 179   0.0000       2.655941        72.2718 
 180   0.0000       2.711132        73.7737 
 181   0.0000       2.755995        74.9944 
 182   0.0000       2.799559        76.1799 
 183   0.0000       2.838168        77.2305 

                    ********************************
                    * MULLIKEN POPULATION ANALYSIS *
                    ********************************

------------------------------------------
FOD BASED MULLIKEN REDUCED ORBITAL CHARGES
------------------------------------------
  0 C s       :    -0.000000  s :    -0.000000
      pz      :     0.000000  p :     0.000000
      px      :     0.000000
      py      :     0.000000
      dz2     :     0.000000  d :     0.000000
      dxz     :     0.000000
      dyz     :     0.000000
      dx2y2   :     0.000000
      dxy     :     0.000000
  1 C s       :    -0.000000  s :    -0.000000
      pz      :     0.000000  p :     0.000000
      px      :     0.000000
      py      :     0.000000
      dz2     :     0.000000  d :     0.000000
      dxz     :     0.000000
      dyz     :     0.000000
      dx2y2   :     0.000000
      dxy     :     0.000000
  2 C s       :    -0.000000  s :    -0.000000
      pz      :     0.000000  p :     0.000000
      px      :     0.000000
      py      :     0.000000
      dz2     :     0.000000  d :     0.000000
      dxz     :     0.000000
      dyz     :     0.000000
      dx2y2   :     0.000000
      dxy     :     0.000000
  3 C s       :    -0.000000  s :    -0.000000
      pz      :     0.000000  p :     0.000000
      px      :     0.000000
      py      :     0.000000
      dz2     :     0.000000  d :     0.000000
      dxz     :     0.000000
      dyz     :     0.000000
      dx2y2   :     0.000000
      dxy     :     0.000000
  4 C s       :    -0.000000  s :    -0.000000
      pz      :     0.000000  p :     0.000000
      px      :     0.000000
      py      :     0.000000
      dz2     :     0.000000  d :     0.000000
      dxz     :     0.000000
      dyz     :     0.000000
      dx2y2   :     0.000000
      dxy     :     0.000000
  5 C s       :    -0.000000  s :    -0.000000
      pz      :     0.000000  p :     0.000000
      px      :     0.000000
      py      :     0.000000
      dz2     :     0.000000  d :     0.000000
      dxz     :     0.000000
      dyz     :     0.000000
      dx2y2   :     0.000000
      dxy     :     0.000000
  6 C s       :    -0.000000  s :    -0.000000
      pz      :     0.000000  p :     0.000000
      px      :     0.000000
      py      :     0.000000
      dz2     :     0.000000  d :     0.000000
      dxz     :     0.000000
      dyz     :     0.000000
      dx2y2   :     0.000000
      dxy     :     0.000000
  7 C s       :    -0.000000  s :    -0.000000
      pz      :     0.000000  p :     0.000000
      px      :     0.000000
      py      :     0.000000
      dz2     :     0.000000  d :     0.000000
      dxz     :     0.000000
      dyz     :     0.000000
      dx2y2   :     0.000000
      dxy     :     0.000000
  8 C s       :    -0.000000  s :    -0.000000
      pz      :     0.000000  p :     0.000000
      px      :     0.000000
      py      :     0.000000
      dz2     :     0.000000  d :     0.000000
      dxz     :     0.000000
      dyz     :     0.000000
      dx2y2   :     0.000000
      dxy     :     0.000000
  9 C s       :    -0.000000  s :    -0.000000
      pz      :     0.000000  p :     0.000000
      px      :     0.000000
      py      :     0.000000
      dz2     :     0.000000  d :     0.000000
      dxz     :     0.000000
      dyz     :     0.000000
      dx2y2   :     0.000000
      dxy     :     0.000000
 10 H s       :     0.000000  s :     0.000000
 11 H s       :     0.000000  s :     0.000000
 12 H s       :     0.000000  s :     0.000000
 13 H s       :     0.000000  s :     0.000000
 14 H s       :     0.000000  s :     0.000000
 15 H s       :     0.000000  s :     0.000000
 16 H s       :     0.000000  s :     0.000000
 17 H s       :     0.000000  s :     0.000000
 18 H s       :     0.000000  s :     0.000000
 19 H s       :     0.000000  s :     0.000000
 20 H s       :     0.000000  s :     0.000000
 21 H s       :     0.000000  s :     0.000000
 22 H s       :     0.000000  s :     0.000000
 23 H s       :     0.000000  s :     0.000000
 24 H s       :     0.000000  s :     0.000000
 25 H s       :     0.000000  s :     0.000000
 26 H s       :     0.000000  s :     0.000000
 27 H s       :     0.000000  s :     0.000000
 28 H s       :     0.000000  s :     0.000000
 29 H s       :     0.000000  s :     0.000000
 30 H s       :     0.000000  s :     0.000000
 31 H s       :     0.000000  s :     0.000000


                     *******************************
                     * LOEWDIN POPULATION ANALYSIS *
                     *******************************

-------------------------------------------
LOEWDIN ATOMIC CHARGES AND SPIN POPULATIONS
-------------------------------------------
   0 C :   -0.322401    0.000000
   1 C :   -0.227287    0.000000
   2 C :   -0.214006    0.000000
   3 C :   -0.216770    0.000000
   4 C :   -0.207044    0.000000
   5 C :   -0.204835    0.000000
   6 C :   -0.218658    0.000000
   7 C :   -0.213986    0.000000
   8 C :   -0.224201    0.000000
   9 C :   -0.326365    0.000000
  10 H :    0.109677    0.000000
  11 H :    0.108463    0.000000
  12 H :    0.117370    0.000000
  13 H :    0.111132    0.000000
  14 H :    0.106733    0.000000
  15 H :    0.104468    0.000000
  16 H :    0.106478    0.000000
  17 H :    0.111181    0.000000
  18 H :    0.107959    0.000000
  19 H :    0.102782    0.000000
  20 H :    0.107871    0.000000
  21 H :    0.101498    0.000000
  22 H :    0.100454    0.000000
  23 H :    0.111205    0.000000
  24 H :    0.109632    0.000000
  25 H :    0.104451    0.000000
  26 H :    0.105713    0.000000
  27 H :    0.106408    0.000000
  28 H :    0.104338    0.000000
  29 H :    0.114845    0.000000
  30 H :    0.113692    0.000000
  31 H :    0.109202    0.000000

----------------------------------------------------
LOEWDIN REDUCED ORBITAL CHARGES AND SPIN POPULATIONS
----------------------------------------------------
CHARGE
  0 C s       :     2.949963  s :     2.949963
      pz      :     1.108613  p :     3.297048
      px      :     1.108788
      py      :     1.079647
      dz2     :     0.004093  d :     0.075391
      dxz     :     0.021452
      dyz     :     0.021754
      dx2y2   :     0.020058
      dxy     :     0.008034
  1 C s       :     2.896252  s :     2.896252
      pz      :     1.090811  p :     3.236067
      px      :     1.075720
      py      :     1.069536
      dz2     :     0.016627  d :     0.094968
      dxz     :     0.018240
      dyz     :     0.016220
      dx2y2   :     0.017556
      dxy     :     0.026325
  2 C s       :     2.901154  s :     2.901154
      pz      :     1.085224  p :     3.215518
      px      :     1.055020
      py      :     1.075274
      dz2     :     0.022504  d :     0.097334
      dxz     :     0.015336
      dyz     :     0.013593
      dx2y2   :     0.023604
      dxy     :     0.022298
  3 C s       :     2.908960  s :     2.908960
      pz      :     1.079285  p :     3.213436
      px      :     1.051948
      py      :     1.082203
      dz2     :     0.028089  d :     0.094374
      dxz     :     0.014989
      dyz     :     0.009210
      dx2y2   :     0.021441
      dxy     :     0.020645
  4 C s       :     2.906640  s :     2.906640
      pz      :     1.077726  p :     3.207551
      px      :     1.048560
      py      :     1.081265
      dz2     :     0.016581  d :     0.092853
      dxz     :     0.024820
      dyz     :     0.013876
      dx2y2   :     0.018182
      dxy     :     0.019393
  5 C s       :     2.904716  s :     2.904716
      pz      :     1.075079  p :     3.204982
      px      :     1.058832
      py      :     1.071071
      dz2     :     0.025894  d :     0.095137
      dxz     :     0.023401
      dyz     :     0.005571
      dx2y2   :     0.013840
      dxy     :     0.026431
  6 C s       :     2.903415  s :     2.903415
      pz      :     1.079905  p :     3.220260
      px      :     1.058016
      py      :     1.082339
      dz2     :     0.019624  d :     0.094983
      dxz     :     0.027737
      dyz     :     0.008465
      dx2y2   :     0.014586
      dxy     :     0.024570
  7 C s       :     2.905275  s :     2.905275
      pz      :     1.075733  p :     3.214708
      px      :     1.056338
      py      :     1.082637
      dz2     :     0.022355  d :     0.094003
      dxz     :     0.023105
      dyz     :     0.011279
      dx2y2   :     0.025051
      dxy     :     0.012213
  8 C s       :     2.906535  s :     2.906535
      pz      :     1.090625  p :     3.224692
      px      :     1.066267
      py      :     1.067801
      dz2     :     0.013286  d :     0.092974
      dxz     :     0.020834
      dyz     :     0.018522
      dx2y2   :     0.020326
      dxy     :     0.020006
  9 C s       :     2.952049  s :     2.952049
      pz      :     1.106149  p :     3.300542
      px      :     1.111070
      py      :     1.083323
      dz2     :     0.015357  d :     0.073774
      dxz     :     0.010686
      dyz     :     0.016005
      dx2y2   :     0.015464
      dxy     :     0.016261
 10 H s       :     0.890323  s :     0.890323
 11 H s       :     0.891537  s :     0.891537
 12 H s       :     0.882630  s :     0.882630
 13 H s       :     0.888868  s :     0.888868
 14 H s       :     0.893267  s :     0.893267
 15 H s       :     0.895532  s :     0.895532
 16 H s       :     0.893522  s :     0.893522
 17 H s       :     0.888819  s :     0.888819
 18 H s       :     0.892041  s :     0.892041
 19 H s       :     0.897218  s :     0.897218
 20 H s       :     0.892129  s :     0.892129
 21 H s       :     0.898502  s :     0.898502
 22 H s       :     0.899546  s :     0.899546
 23 H s       :     0.888795  s :     0.888795
 24 H s       :     0.890368  s :     0.890368
 25 H s       :     0.895549  s :     0.895549
 26 H s       :     0.894287  s :     0.894287
 27 H s       :     0.893592  s :     0.893592
 28 H s       :     0.895662  s :     0.895662
 29 H s       :     0.885155  s :     0.885155
 30 H s       :     0.886308  s :     0.886308
 31 H s       :     0.890798  s :     0.890798

SPIN
  0 C s       :     0.000000  s :     0.000000
      pz      :     0.000000  p :     0.000000
      px      :     0.000000
      py      :     0.000000
      dz2     :     0.000000  d :     0.000000
      dxz     :     0.000000
      dyz     :     0.000000
      dx2y2   :     0.000000
      dxy     :     0.000000
  1 C s       :     0.000000  s :     0.000000
      pz      :     0.000000  p :     0.000000
      px      :     0.000000
      py      :     0.000000
      dz2     :     0.000000  d :     0.000000
      dxz     :     0.000000
      dyz     :     0.000000
      dx2y2   :     0.000000
      dxy     :     0.000000
  2 C s       :     0.000000  s :     0.000000
      pz      :     0.000000  p :     0.000000
      px      :     0.000000
      py      :     0.000000
      dz2     :     0.000000  d :     0.000000
      dxz     :     0.000000
      dyz     :     0.000000
      dx2y2   :     0.000000
      dxy     :     0.000000
  3 C s       :     0.000000  s :     0.000000
      pz      :     0.000000  p :     0.000000
      px      :     0.000000
      py      :     0.000000
      dz2     :     0.000000  d :     0.000000
      dxz     :     0.000000
      dyz     :     0.000000
      dx2y2   :     0.000000
      dxy     :     0.000000
  4 C s       :     0.000000  s :     0.000000
      pz      :     0.000000  p :     0.000000
      px      :     0.000000
      py      :     0.000000
      dz2     :     0.000000  d :     0.000000
      dxz     :     0.000000
      dyz     :     0.000000
      dx2y2   :     0.000000
      dxy     :     0.000000
  5 C s       :     0.000000  s :     0.000000
      pz      :     0.000000  p :     0.000000
      px      :     0.000000
      py      :     0.000000
      dz2     :     0.000000  d :     0.000000
      dxz     :     0.000000
      dyz     :     0.000000
      dx2y2   :     0.000000
      dxy     :     0.000000
  6 C s       :     0.000000  s :     0.000000
      pz      :     0.000000  p :     0.000000
      px      :     0.000000
      py      :     0.000000
      dz2     :     0.000000  d :     0.000000
      dxz     :     0.000000
      dyz     :     0.000000
      dx2y2   :     0.000000
      dxy     :     0.000000
  7 C s       :     0.000000  s :     0.000000
      pz      :     0.000000  p :     0.000000
      px      :     0.000000
      py      :     0.000000
      dz2     :     0.000000  d :     0.000000
      dxz     :     0.000000
      dyz     :     0.000000
      dx2y2   :     0.000000
      dxy     :     0.000000
  8 C s       :     0.000000  s :     0.000000
      pz      :     0.000000  p :     0.000000
      px      :     0.000000
      py      :     0.000000
      dz2     :     0.000000  d :     0.000000
      dxz     :     0.000000
      dyz     :     0.000000
      dx2y2   :     0.000000
      dxy     :     0.000000
  9 C s       :     0.000000  s :     0.000000
      pz      :     0.000000  p :     0.000000
      px      :     0.000000
      py      :     0.000000
      dz2     :     0.000000  d :     0.000000
      dxz     :     0.000000
      dyz     :     0.000000
      dx2y2   :     0.000000
      dxy     :     0.000000
 10 H s       :     0.000000  s :     0.000000
 11 H s       :     0.000000  s :     0.000000
 12 H s       :     0.000000  s :     0.000000
 13 H s       :     0.000000  s :     0.000000
 14 H s       :     0.000000  s :     0.000000
 15 H s       :     0.000000  s :     0.000000
 16 H s       :     0.000000  s :     0.000000
 17 H s       :     0.000000  s :     0.000000
 18 H s       :     0.000000  s :     0.000000
 19 H s       :     0.000000  s :     0.000000
 20 H s       :     0.000000  s :     0.000000
 21 H s       :     0.000000  s :     0.000000
 22 H s       :     0.000000  s :     0.000000
 23 H s       :     0.000000  s :     0.000000
 24 H s       :     0.000000  s :     0.000000
 25 H s       :     0.000000  s :     0.000000
 26 H s       :     0.000000  s :     0.000000
 27 H s       :     0.000000  s :     0.000000
 28 H s       :     0.000000  s :     0.000000
 29 H s       :     0.000000  s :     0.000000
 30 H s       :     0.000000  s :     0.000000
 31 H s       :     0.000000  s :     0.000000


                      *****************************
                      * MAYER POPULATION ANALYSIS *
                      *****************************

  NA   - Mulliken gross atomic population
  ZA   - Total nuclear charge
  QA   - Mulliken gross atomic charge
  VA   - Mayer's total valence
  BVA  - Mayer's bonded valence
  FA   - Mayer's free valence

  ATOM       NA         ZA         QA         VA         BVA        FA
  0 C      6.2704     6.0000    -0.2704     4.0631     4.0631    -0.0000
  1 C      6.1157     6.0000    -0.1157     4.1353     4.1353     0.0000
  2 C      6.1689     6.0000    -0.1689     4.1725     4.1725     0.0000
  3 C      6.1956     6.0000    -0.1956     4.1771     4.1771     0.0000
  4 C      6.1449     6.0000    -0.1449     4.0799     4.0799     0.0000
  5 C      6.0855     6.0000    -0.0855     4.0693     4.0693     0.0000
  6 C      6.1913     6.0000    -0.1913     4.1288     4.1288     0.0000
  7 C      6.1439     6.0000    -0.1439     4.1230     4.1230     0.0000
  8 C      6.1726     6.0000    -0.1726     4.1422     4.1422     0.0000
  9 C      6.2706     6.0000    -0.2706     4.0043     4.0043    -0.0000
 10 H      0.9099     1.0000     0.0901     0.9506     0.9506     0.0000
 11 H      0.9188     1.0000     0.0812     0.9510     0.9510     0.0000
 12 H      0.8855     1.0000     0.1145     0.9649     0.9649     0.0000
 13 H      0.9330     1.0000     0.0670     0.9453     0.9453     0.0000
 14 H      0.9290     1.0000     0.0710     0.9475     0.9475     0.0000
 15 H      0.9277     1.0000     0.0723     0.9466     0.9466     0.0000
 16 H      0.9318     1.0000     0.0682     0.9479     0.9479     0.0000
 17 H      0.9103     1.0000     0.0897     0.9477     0.9477     0.0000
 18 H      0.9111     1.0000     0.0889     0.9493     0.9493     0.0000
 19 H      0.9314     1.0000     0.0686     0.9587     0.9587     0.0000
 20 H      0.9259     1.0000     0.0741     0.9599     0.9599     0.0000
 21 H      0.9386     1.0000     0.0614     0.9538     0.9538     0.0000
 22 H      0.9351     1.0000     0.0649     0.9578     0.9578     0.0000
 23 H      0.9173     1.0000     0.0827     0.9491     0.9491     0.0000
 24 H      0.9131     1.0000     0.0869     0.9498     0.9498     0.0000
 25 H      0.9295     1.0000     0.0705     0.9476     0.9476     0.0000
 26 H      0.9306     1.0000     0.0694     0.9582     0.9582     0.0000
 27 H      0.9284     1.0000     0.0716     0.9458     0.9458     0.0000
 28 H      0.9225     1.0000     0.0775     0.9455     0.9455     0.0000
 29 H      0.8936     1.0000     0.1064     0.9664     0.9664     0.0000
 30 H      0.9063     1.0000     0.0937     0.9520     0.9520     0.0000
 31 H      0.9110     1.0000     0.0890     0.9516     0.9516     0.0000

  Mayer bond orders larger than 0.100000
B(  0-C ,  1-C ) :   1.1700 B(  0-C , 10-H ) :   0.9590 B(  0-C , 11-H ) :   0.9578 
[...]
      px      :     0.000000
      py      :     0.000000
      dz2     :     0.000000  d :     0.000000
      dxz     :     0.000000
      dyz     :     0.000000
      dx2y2   :     0.000000
      dxy     :     0.000000
  9 C s       :    -0.000000  s :    -0.000000
      pz      :     0.000000  p :     0.000000
      px      :     0.000000
      py      :     0.000000
      dz2     :     0.000000  d :     0.000000
      dxz     :     0.000000
      dyz     :     0.000000
      dx2y2   :     0.000000
      dxy     :     0.000000
 10 H s       :     0.000000  s :     0.000000
 11 H s       :     0.000000  s :     0.000000
 12 H s       :     0.000000  s :     0.000000
 13 H s       :     0.000000  s :     0.000000
 14 H s       :     0.000000  s :     0.000000
 15 H s       :     0.000000  s :     0.000000
 16 H s       :     0.000000  s :     0.000000
 17 H s       :     0.000000  s :     0.000000
 18 H s       :     0.000000  s :     0.000000
 19 H s       :     0.000000  s :     0.000000
 20 H s       :     0.000000  s :     0.000000
 21 H s       :     0.000000  s :     0.000000
 22 H s       :     0.000000  s :     0.000000
 23 H s       :     0.000000  s :     0.000000
 24 H s       :     0.000000  s :     0.000000
 25 H s       :     0.000000  s :     0.000000
 26 H s       :     0.000000  s :     0.000000
 27 H s       :     0.000000  s :     0.000000
 28 H s       :     0.000000  s :     0.000000
 29 H s       :     0.000000  s :     0.000000
 30 H s       :     0.000000  s :     0.000000
 31 H s       :     0.000000  s :     0.000000


                     *******************************
                     * LOEWDIN POPULATION ANALYSIS *
                     *******************************

-------------------------------------------
LOEWDIN ATOMIC CHARGES AND SPIN POPULATIONS
-------------------------------------------
   0 C :   -0.323428    0.000000
   1 C :   -0.216464    0.000000
   2 C :   -0.208853    0.000000
   3 C :   -0.215294    0.000000
   4 C :   -0.212010    0.000000
   5 C :   -0.205922    0.000000
   6 C :   -0.216186    0.000000
   7 C :   -0.214641    0.000000
   8 C :   -0.214360    0.000000
   9 C :   -0.324958    0.000000
  10 H :    0.108379    0.000000
  11 H :    0.112030    0.000000
  12 H :    0.108974    0.000000
  13 H :    0.107696    0.000000
  14 H :    0.105274    0.000000
  15 H :    0.103745    0.000000
  16 H :    0.105210    0.000000
  17 H :    0.106150    0.000000
  18 H :    0.104388    0.000000
  19 H :    0.106300    0.000000
  20 H :    0.105470    0.000000
  21 H :    0.105210    0.000000
  22 H :    0.105268    0.000000
  23 H :    0.106978    0.000000
  24 H :    0.106564    0.000000
  25 H :    0.105382    0.000000
  26 H :    0.106320    0.000000
  27 H :    0.106840    0.000000
  28 H :    0.104923    0.000000
  29 H :    0.108963    0.000000
  30 H :    0.109740    0.000000
  31 H :    0.112310    0.000000

----------------------------------------------------
LOEWDIN REDUCED ORBITAL CHARGES AND SPIN POPULATIONS
----------------------------------------------------
CHARGE
  0 C s       :     2.952411  s :     2.952411
      pz      :     1.112771  p :     3.297811
      px      :     1.109280
      py      :     1.075760
      dz2     :     0.016595  d :     0.073206
      dxz     :     0.017159
      dyz     :     0.007255
      dx2y2   :     0.012217
      dxy     :     0.019980
  1 C s       :     2.911063  s :     2.911063
      pz      :     1.090187  p :     3.214905
      px      :     1.073345
      py      :     1.051373
      dz2     :     0.020286  d :     0.090496
      dxz     :     0.019160
      dyz     :     0.009588
      dx2y2   :     0.021475
      dxy     :     0.019986
  2 C s       :     2.913434  s :     2.913434
      pz      :     1.080781  p :     3.205230
      px      :     1.056750
      py      :     1.067699
      dz2     :     0.026153  d :     0.090189
      dxz     :     0.017892
      dyz     :     0.005357
      dx2y2   :     0.015324
      dxy     :     0.025463
  3 C s       :     2.911176  s :     2.911176
      pz      :     1.081395  p :     3.214106
      px      :     1.055792
      py      :     1.076920
      dz2     :     0.026908  d :     0.090012
      dxz     :     0.017018
      dyz     :     0.005484
      dx2y2   :     0.014736
      dxy     :     0.025866
  4 C s       :     2.910823  s :     2.910823
      pz      :     1.084641  p :     3.210831
      px      :     1.054361
      py      :     1.071829
      dz2     :     0.026178  d :     0.090356
      dxz     :     0.017605
      dyz     :     0.006065
      dx2y2   :     0.013763
      dxy     :     0.026745
  5 C s       :     2.910902  s :     2.910902
      pz      :     1.079781  p :     3.204697
      px      :     1.055918
      py      :     1.068998
      dz2     :     0.020737  d :     0.090322
      dxz     :     0.019095
      dyz     :     0.011312
      dx2y2   :     0.013537
      dxy     :     0.025641
  6 C s       :     2.910408  s :     2.910408
      pz      :     1.072099  p :     3.215693
      px      :     1.070867
      py      :     1.072727
      dz2     :     0.013936  d :     0.090085
      dxz     :     0.024791
      dyz     :     0.018011
      dx2y2   :     0.011447
      dxy     :     0.021899
  7 C s       :     2.912605  s :     2.912605
      pz      :     1.073817  p :     3.212070
      px      :     1.072178
      py      :     1.066075
      dz2     :     0.013688  d :     0.089966
      dxz     :     0.023909
      dyz     :     0.019104
      dx2y2   :     0.011428
      dxy     :     0.021838
  8 C s       :     2.910770  s :     2.910770
      pz      :     1.086019  p :     3.212979
      px      :     1.074102
      py      :     1.052858
      dz2     :     0.016711  d :     0.090611
      dxz     :     0.021091
      dyz     :     0.012937
      dx2y2   :     0.016680
      dxy     :     0.023192
  9 C s       :     2.952402  s :     2.952402
      pz      :     1.111601  p :     3.299450
      px      :     1.108638
      py      :     1.079211
      dz2     :     0.019057  d :     0.073106
      dxz     :     0.014164
      dyz     :     0.008135
      dx2y2   :     0.009617
      dxy     :     0.022132
 10 H s       :     0.891621  s :     0.891621
 11 H s       :     0.887970  s :     0.887970
 12 H s       :     0.891026  s :     0.891026
 13 H s       :     0.892304  s :     0.892304
 14 H s       :     0.894726  s :     0.894726
 15 H s       :     0.896255  s :     0.896255
 16 H s       :     0.894790  s :     0.894790
 17 H s       :     0.893850  s :     0.893850
 18 H s       :     0.895612  s :     0.895612
 19 H s       :     0.893700  s :     0.893700
 20 H s       :     0.894530  s :     0.894530
 21 H s       :     0.894790  s :     0.894790
 22 H s       :     0.894732  s :     0.894732
 23 H s       :     0.893022  s :     0.893022
 24 H s       :     0.893436  s :     0.893436
 25 H s       :     0.894618  s :     0.894618
 26 H s       :     0.893680  s :     0.893680
 27 H s       :     0.893160  s :     0.893160
 28 H s       :     0.895077  s :     0.895077
 29 H s       :     0.891037  s :     0.891037
 30 H s       :     0.890260  s :     0.890260
 31 H s       :     0.887690  s :     0.887690

SPIN
  0 C s       :     0.000000  s :     0.000000
      pz      :     0.000000  p :     0.000000
      px      :     0.000000
      py      :     0.000000
      dz2     :     0.000000  d :     0.000000
      dxz     :     0.000000
      dyz     :     0.000000
      dx2y2   :     0.000000
      dxy     :     0.000000
  1 C s       :     0.000000  s :     0.000000
      pz      :     0.000000  p :     0.000000
      px      :     0.000000
      py      :     0.000000
      dz2     :     0.000000  d :     0.000000
      dxz     :     0.000000
      dyz     :     0.000000
      dx2y2   :     0.000000
      dxy     :     0.000000
  2 C s       :     0.000000  s :     0.000000
      pz      :     0.000000  p :     0.000000
      px      :     0.000000
      py      :     0.000000
      dz2     :     0.000000  d :     0.000000
      dxz     :     0.000000
      dyz     :     0.000000
      dx2y2   :     0.000000
      dxy     :     0.000000
  3 C s       :     0.000000  s :     0.000000
      pz      :     0.000000  p :     0.000000
      px      :     0.000000
      py      :     0.000000
      dz2     :     0.000000  d :     0.000000
      dxz     :     0.000000
      dyz     :     0.000000
      dx2y2   :     0.000000
      dxy     :     0.000000
  4 C s       :     0.000000  s :     0.000000
      pz      :     0.000000  p :     0.000000
      px      :     0.000000
      py      :     0.000000
      dz2     :     0.000000  d :     0.000000
      dxz     :     0.000000
      dyz     :     0.000000
      dx2y2   :     0.000000
      dxy     :     0.000000
  5 C s       :     0.000000  s :     0.000000
      pz      :     0.000000  p :     0.000000
      px      :     0.000000
      py      :     0.000000
      dz2     :     0.000000  d :     0.000000
      dxz     :     0.000000
      dyz     :     0.000000
      dx2y2   :     0.000000
      dxy     :     0.000000
  6 C s       :     0.000000  s :     0.000000
      pz      :     0.000000  p :     0.000000
      px      :     0.000000
      py      :     0.000000
      dz2     :     0.000000  d :     0.000000
      dxz     :     0.000000
      dyz     :     0.000000
      dx2y2   :     0.000000
      dxy     :     0.000000
  7 C s       :     0.000000  s :     0.000000
      pz      :     0.000000  p :     0.000000
      px      :     0.000000
      py      :     0.000000
      dz2     :     0.000000  d :     0.000000
      dxz     :     0.000000
      dyz     :     0.000000
      dx2y2   :     0.000000
      dxy     :     0.000000
  8 C s       :     0.000000  s :     0.000000
      pz      :     0.000000  p :     0.000000
      px      :     0.000000
      py      :     0.000000
      dz2     :     0.000000  d :     0.000000
      dxz     :     0.000000
      dyz     :     0.000000
      dx2y2   :     0.000000
      dxy     :     0.000000
  9 C s       :     0.000000  s :     0.000000
      pz      :     0.000000  p :     0.000000
      px      :     0.000000
      py      :     0.000000
      dz2     :     0.000000  d :     0.000000
      dxz     :     0.000000
      dyz     :     0.000000
      dx2y2   :     0.000000
      dxy     :     0.000000
 10 H s       :     0.000000  s :     0.000000
 11 H s       :     0.000000  s :     0.000000
 12 H s       :     0.000000  s :     0.000000
 13 H s       :     0.000000  s :     0.000000
 14 H s       :     0.000000  s :     0.000000
 15 H s       :     0.000000  s :     0.000000
 16 H s       :     0.000000  s :     0.000000
 17 H s       :     0.000000  s :     0.000000
 18 H s       :     0.000000  s :     0.000000
 19 H s       :     0.000000  s :     0.000000
 20 H s       :     0.000000  s :     0.000000
 21 H s       :     0.000000  s :     0.000000
 22 H s       :     0.000000  s :     0.000000
 23 H s       :     0.000000  s :     0.000000
 24 H s       :     0.000000  s :     0.000000
 25 H s       :     0.000000  s :     0.000000
 26 H s       :     0.000000  s :     0.000000
 27 H s       :     0.000000  s :     0.000000
 28 H s       :     0.000000  s :     0.000000
 29 H s       :     0.000000  s :     0.000000
 30 H s       :     0.000000  s :     0.000000
 31 H s       :     0.000000  s :     0.000000


                      *****************************
                      * MAYER POPULATION ANALYSIS *
                      *****************************

  NA   - Mulliken gross atomic population
  ZA   - Total nuclear charge
  QA   - Mulliken gross atomic charge
  VA   - Mayer's total valence
  BVA  - Mayer's bonded valence
  FA   - Mayer's free valence

  ATOM       NA         ZA         QA         VA         BVA        FA
  0 C      6.2746     6.0000    -0.2746     4.0110     4.0110    -0.0000
  1 C      6.1197     6.0000    -0.1197     4.1124     4.1124     0.0000
  2 C      6.1288     6.0000    -0.1288     4.0881     4.0881     0.0000
  3 C      6.1954     6.0000    -0.1954     4.0919     4.0919     0.0000
  4 C      6.1453     6.0000    -0.1453     4.0916     4.0916     0.0000
  5 C      6.0788     6.0000    -0.0788     4.0796     4.0796     0.0000
  6 C      6.1723     6.0000    -0.1723     4.0949     4.0949     0.0000
  7 C      6.1746     6.0000    -0.1746     4.0968     4.0968     0.0000
  8 C      6.1145     6.0000    -0.1145     4.1172     4.1172     0.0000
  9 C      6.2813     6.0000    -0.2813     4.0097     4.0097    -0.0000
 10 H      0.9152     1.0000     0.0848     0.9576     0.9576     0.0000
 11 H      0.9073     1.0000     0.0927     0.9512     0.9512     0.0000
 12 H      0.9014     1.0000     0.0986     0.9575     0.9575     0.0000
 13 H      0.9283     1.0000     0.0717     0.9455     0.9455     0.0000
 14 H      0.9322     1.0000     0.0678     0.9511     0.9511     0.0000
 15 H      0.9367     1.0000     0.0633     0.9550     0.9550     0.0000
 16 H      0.9336     1.0000     0.0664     0.9520     0.9520     0.0000
 17 H      0.9109     1.0000     0.0891     0.9621     0.9621     0.0000
 18 H      0.9368     1.0000     0.0632     0.9558     0.9558     0.0000
 19 H      0.9335     1.0000     0.0665     0.9523     0.9523     0.0000
 20 H      0.9247     1.0000     0.0753     0.9567     0.9567     0.0000
 21 H      0.9378     1.0000     0.0622     0.9525     0.9525     0.0000
 22 H      0.9388     1.0000     0.0612     0.9521     0.9521     0.0000
 23 H      0.9343     1.0000     0.0657     0.9513     0.9513     0.0000
 24 H      0.9112     1.0000     0.0888     0.9580     0.9580     0.0000
 25 H      0.9197     1.0000     0.0803     0.9553     0.9553     0.0000
 26 H      0.9312     1.0000     0.0688     0.9507     0.9507     0.0000
 27 H      0.9313     1.0000     0.0687     0.9463     0.9463     0.0000
 28 H      0.9313     1.0000     0.0687     0.9512     0.9512     0.0000
 29 H      0.9114     1.0000     0.0886     0.9575     0.9575     0.0000
 30 H      0.9013     1.0000     0.0987     0.9575     0.9575     0.0000
 31 H      0.9055     1.0000     0.0945     0.9512     0.9512     0.0000

  Mayer bond orders larger than 0.100000
B(  0-C ,  1-C ) :   1.1297 B(  0-C , 10-H ) :   0.9608 B(  0-C , 11-H ) :   0.9580 
B(  0-C , 12-H ) :   0.9553 B(  1-C ,  2-C ) :   1.1122 B(  1-C , 13-H ) :   0.9354 
B(  1-C , 14-H ) :   0.9331 B(  2-C ,  3-C ) :   1.1161 B(  2-C , 15-H ) :   0.9277 
B(  2-C , 16-H ) :   0.9313 B(  3-C ,  4-C ) :   1.1198 B(  3-C , 17-H ) :   0.9144 
B(  3-C , 18-H ) :   0.9292 B(  4-C ,  5-C ) :   1.1091 B(  4-C , 19-H ) :   0.9282 
B(  4-C , 20-H ) :   0.9223 B(  5-C ,  6-C ) :   1.1145 B(  5-C , 21-H ) :   0.9280 
B(  5-C , 22-H ) :   0.9270 B(  6-C ,  7-C ) :   1.1143 B(  6-C , 23-H ) :   0.9268 
B(  6-C , 24-H ) :   0.9192 B(  7-C ,  8-C ) :   1.1132 B(  7-C , 25-H ) :   0.9219 
B(  7-C , 26-H ) :   0.9303 B(  8-C ,  9-C ) :   1.1301 B(  8-C , 27-H ) :   0.9358 
B(  8-C , 28-H ) :   0.9336 B(  9-C , 29-H ) :   0.9600 B(  9-C , 30-H ) :   0.9555 
B(  9-C , 31-H ) :   0.9581 

-------
TIMINGS
-------

Total SCF time: 0 days 0 hours 2 min 52 sec 

Total time                  ....     172.939 sec
Sum of individual times     ....     144.783 sec  ( 83.7%)

Fock matrix formation       ....     129.858 sec  ( 75.1%)
  XC integration            ....      37.014 sec  ( 28.5% of F)
    Basis function eval.    ....       2.219 sec  (  6.0% of XC)
    Density eval.           ....       2.095 sec  (  5.7% of XC)
    XC-Functional eval.     ....       0.403 sec  (  1.1% of XC)
    XC-Potential eval.      ....       2.473 sec  (  6.7% of XC)
Diagonalization             ....       0.162 sec  (  0.1%)
Density matrix formation    ....       5.248 sec  (  3.0%)
Population analysis         ....       2.146 sec  (  1.2%)
Initial guess               ....       0.763 sec  (  0.4%)
Orbital Transformation      ....       0.000 sec  (  0.0%)
Orbital Orthonormalization  ....       0.012 sec  (  0.0%)
DIIS solution               ....       2.417 sec  (  1.4%)
Grid generation             ....       4.187 sec  (  2.4%)


-------------------------------------------------------------------------------
                          DFT DISPERSION CORRECTION                            
                                                                               
                              DFTD3 V3.1  Rev 1                                
                          USING Becke-Johnson damping                          
-------------------------------------------------------------------------------
The B3LYP functional is recognized
Active option DFTDOPT                   ...         4   

molecular C6(AA) [au] = 6609.649268 


            DFT-D V3
 parameters
 s6 scaling factor         :     1.0000 
 a1 scaling factor         :     0.3981 
 s8 scaling factor         :     1.9889 
 a2 scaling factor         :     4.4211 
 ad hoc parameters k1-k3   :    16.0000     1.3333    -4.0000 

 Edisp/kcal,au: -29.073045992104  -0.046330842947 
 E6   /kcal   : -14.652181777 
 E8   /kcal   : -14.420864216 
 % E8         :  49.602178662 

-------------------------   ----------------
Dispersion correction           -0.046330843
-------------------------   ----------------


-------------------------   --------------------
FINAL SINGLE POINT ENERGY      -393.748468654819
-------------------------   --------------------

                                *** OPTIMIZATION RUN DONE ***

                            ***************************************
                            *     ORCA property calculations      *
                            ***************************************

                                    ---------------------
                                    Active property flags
                                    ---------------------
   (+) Dipole Moment


------------------------------------------------------------------------------
                       ORCA ELECTRIC PROPERTIES CALCULATION
------------------------------------------------------------------------------

Dipole Moment Calculation                       ... on
Quadrupole Moment Calculation                   ... off
Polarizability Calculation                      ... off
GBWName                                         ... orca4.gbw
Electron density file                           ... orca4.scfp
The origin for moment calculation is the CENTER OF MASS  = ( 0.008806, -0.188572  0.008455)

-------------
DIPOLE MOMENT
-------------
                                X             Y             Z
Electronic contribution:      0.14882      -3.26723       0.14707
Nuclear contribution   :     -0.15271       3.27026      -0.14663
                        -----------------------------------------
Total Dipole Moment    :     -0.00390       0.00302       0.00043
                        -----------------------------------------
Magnitude (a.u.)       :      0.00495
Magnitude (Debye)      :      0.01259



--------------------
Rotational spectrum 
--------------------
 
Rotational constants in cm-1:     0.050328     0.018746     0.014713 
Rotational constants in MHz :  1508.792547   561.987198   441.084455 

 Dipole components along the rotational axes: 
x,y,z [a.u.] :     0.003910     0.002853     0.001048 
x,y,z [Debye]:     0.009938     0.007252     0.002665 

 

Timings for individual modules:

Sum of individual times         ...     9375.025 sec (= 156.250 min)
GTO integral calculation        ...      185.772 sec (=   3.096 min)   2.0 %
SCF iterations                  ...     8066.627 sec (= 134.444 min)  86.0 %
SCF Gradient evaluation         ...     1025.816 sec (=  17.097 min)  10.9 %
Geometry relaxation             ...       96.811 sec (=   1.614 min)   1.0 %
                             ****ORCA TERMINATED NORMALLY****
TOTAL RUN TIME: 0 days 2 hours 40 minutes 10 seconds 234 msec
