9
Lattice="50.0 0.0 0.0 0.0 50.0 0.0 0.0 0.0 50.0" Properties=species:S:1:pos:R:3:dft_forces:R:3 n_atoms=9 username=eg475 dataset_type=train_compounds_train_configs filename=train.xyz hash_structure=0154021c79357894b4136fd608fefad4 normal_mode_energy=0.23389851991840674 volume=124999.99999999991 normal_mode_temperature=T hash=50b506dbeef00fee5a23aceeb7ac0eb9 config_type=ethanol_mol mol_or_rad=mol smiles=CCO dft_energy=-4212.509602197413 compound=ethanol formula=C2H6O pbc="F F F"
C       -0.93401342       0.07042787       0.05111524       0.35621935      -0.69215077      -0.84583725
C        0.53526377      -0.43666892      -0.11341624      -1.69537623       1.01342896       1.25964530
O        1.47668645       0.40662443       0.51842773       0.09388185      -0.42907879       0.50304526
H       -0.97029179       1.04339780      -0.43222764      -0.26811391       0.75111508      -0.10174642
H       -1.72540173      -0.54563499      -0.45458760       0.69424272       0.01945952       0.06152489
H       -1.25920864       0.16104475       1.08421355       0.16950153       0.13283822       0.65941254
H        0.75898998      -0.52668071      -1.13790909       0.31585540      -0.02707780      -2.17009204
H        0.58504100      -1.45214631       0.25502583       0.52405982      -0.53951085       0.82234029
H        1.29887825       1.34328252       0.32358700      -0.19027052      -0.22902357      -0.18829258
9
Lattice="50.0 0.0 0.0 0.0 50.0 0.0 0.0 0.0 50.0" Properties=species:S:1:pos:R:3:dft_forces:R:3 n_atoms=9 username=eg475 dataset_type=train_compounds_train_configs filename=train.xyz hash_structure=8bdb30e8f919d5dcdcc8dcc078ec5a7e normal_mode_energy=0.2653240710703874 volume=124999.99999999991 normal_mode_temperature=T hash=3a265800513fb616f313b91dc632c023 config_type=ethanol_mol mol_or_rad=mol smiles=CCO dft_energy=-4212.316690758328 compound=ethanol formula=C2H6O pbc="F F F"
C       -0.88441159       0.09092937       0.04598383      -0.47944106      -0.02294854      -0.18808226
C        0.52056676      -0.45132814      -0.09264192       0.10128870      -0.44907803      -2.22102096
O        1.44927441       0.40506357       0.50370797      -0.86546602       2.54328883       0.32348214
H       -0.97379956       1.15187696      -0.33985145       0.08732632      -0.78442405      -0.07180277
H       -1.58196709      -0.58960179      -0.52404559       0.07739593       0.67309914       0.61934397
H       -1.11611979       0.16324753       1.13251669      -0.31759428      -0.27835214      -0.28490773
H        0.79332336      -0.59549936      -1.19685173      -0.41043320       0.38520503       0.61235154
H        0.55621943      -1.52288929       0.23276450       0.32855392       0.67193245       0.80622862
H        1.02948628       1.37156028       0.38111489       1.47836970      -2.73872268       0.40440747
9
Lattice="50.0 0.0 0.0 0.0 50.0 0.0 0.0 0.0 50.0" Properties=species:S:1:pos:R:3:dft_forces:R:3 n_atoms=9 username=eg475 dataset_type=train_compounds_train_configs filename=train.xyz hash_structure=3ac09f34660061232fbfe817d75fe5a8 normal_mode_energy=0.3117980421173876 volume=124999.99999999991 normal_mode_temperature=T hash=214daf3b6f4034b396004e0e9d17ccc0 config_type=ethanol_mol mol_or_rad=mol smiles=CCO dft_energy=-4212.397987975932 compound=ethanol formula=C2H6O pbc="F F F"
C       -0.92674479       0.05107579       0.03351039       1.98773318       3.07476885       2.12343319
C        0.48202712      -0.41749947      -0.13898366       2.29342752       0.19378808      -0.01590131
O        1.48933252       0.39978876       0.53981607      -1.00842338      -0.01495796      -0.46887325
H       -1.05058547       1.05592651      -0.42879238      -0.06457302      -0.08346838       0.09225140
H       -1.62435598      -0.56190221      -0.39518576      -2.23499137      -2.18665248      -1.23877279
H       -1.08492573       0.17235646       1.14585125      -0.27164170      -0.12224612      -0.79060559
H        0.80386282      -0.52773927      -1.23509675      -0.54057112      -0.19815577       1.02807920
H        0.63026615      -1.33355210       0.44652039      -0.17567529      -0.66909527      -0.63868542
H        1.36068577       1.32874354       0.27967400       0.01471518       0.00601905      -0.09092543
9
Lattice="50.0 0.0 0.0 0.0 50.0 0.0 0.0 0.0 50.0" Properties=species:S:1:pos:R:3:dft_forces:R:3 n_atoms=9 username=eg475 dataset_type=train_compounds_train_configs filename=train.xyz hash_structure=66a373259d8a8e26f1d752347720aad2 normal_mode_energy=0.336790826082764 volume=124999.99999999991 normal_mode_temperature=T hash=88bb32ac534c72d7305df94e82df455a config_type=ethanol_mol mol_or_rad=mol smiles=CCO dft_energy=-4212.34844956574 compound=ethanol formula=C2H6O pbc="F F F"
C       -0.90073596       0.05221245       0.05755189      -2.06630227       0.09908997       0.07570666
C        0.49402826      -0.42121091      -0.08520643       0.84217458      -1.40866516      -0.27494799
O        1.45738141       0.42674978       0.52467617      -0.14127431       0.67014726      -1.29485934
H       -0.81719764       1.12167359      -0.23860666      -0.68752034       0.12618035       0.74941611
H       -1.59245938      -0.37859032      -0.75234311       0.71339234       0.08071649       1.05179099
H       -1.34572054      -0.18091461       1.10868591       0.54092108       0.89462277      -1.51601052
H        0.66894879      -0.53512222      -1.17422660       0.43149914       0.00131703      -0.06060827
H        0.60083387      -1.43816897       0.33961733       0.23843639       0.11334010       0.10121404
H        1.57469061       1.14807954      -0.15779832       0.12867337      -0.57674880       1.16829833
8
Lattice="50.0 0.0 0.0 0.0 50.0 0.0 0.0 0.0 50.0" Properties=species:S:1:pos:R:3:dft_forces:R:3 n_atoms=8 username=eg475 dataset_type=train_compounds_train_configs filename=train.xyz hash_structure=1e17d9d1531a5e75c4298b8aafacee05 normal_mode_energy=0.1589390999981617 volume=124999.99999999991 normal_mode_temperature=T hash=b22bbcae2c2495c5cf51a514f0cd6ac0 config_type=ethanol_rad3 mol_or_rad=rad3 smiles=CCO dft_energy=-4194.4314256078505 compound=ethanol formula=C2H5O pbc="F F F"
C       -0.79507716      -0.01844827       0.22219812      -1.63505743      -0.51102174      -0.92927542
C        0.54653175      -0.46856243      -0.11354780       1.05938663      -0.56053698      -0.49882440
O        1.51943845       0.34057884       0.53784122      -0.07569424      -0.05561348       0.00520722
H       -1.67945133      -0.21724248      -0.47207641       0.99550148       0.29841603       1.01159021
H       -0.90703423       0.35327464       1.22962603      -0.52217187       0.24974391       0.52383163
H        0.68241226      -0.38099678      -1.20332831       0.06314991      -0.19071800      -0.50888064
H        0.76948516      -1.57038984       0.10364140      -0.14548552       0.97691762       0.19864448
H        1.26339389       1.25673461       0.30622616       0.26037104      -0.20718736       0.19770692
8
Lattice="50.0 0.0 0.0 0.0 50.0 0.0 0.0 0.0 50.0" Properties=species:S:1:pos:R:3:dft_forces:R:3 n_atoms=8 username=eg475 dataset_type=train_compounds_train_configs filename=train.xyz hash_structure=4209a4253ff679e2233d10fe638edb02 normal_mode_energy=0.2836686370615502 volume=124999.99999999991 normal_mode_temperature=T hash=1bf07b167d48330ebf21bf25cb870f92 config_type=ethanol_rad3 mol_or_rad=rad3 smiles=CCO dft_energy=-4194.299075069897 compound=ethanol formula=C2H5O pbc="F F F"
C       -0.85444197      -0.06411291       0.22412249      -1.60561485       0.36315265      -0.03895956
C        0.56590440      -0.41232194      -0.12162296      -0.89841436      -0.37637729      -1.14509001
O        1.54950245       0.32945039       0.56472009      -0.19061504       1.28585390      -1.15921576
H       -1.81769122      -0.39867613      -0.34595189       1.95552025       0.35518319       0.73410626
H       -1.04355344       0.53231216       1.14704595       0.17704465      -0.34400294      -0.43696955
H        0.71613160      -0.32381590      -1.23281033      -0.09370096       0.06695588       0.20884985
H        0.67526513      -1.50815919       0.01495491       0.54188211      -0.00999980       0.54365247
H        1.59793308       1.19040339       0.02730407       0.11389820      -1.34076558       1.29362631
8
Lattice="50.0 0.0 0.0 0.0 50.0 0.0 0.0 0.0 50.0" Properties=species:S:1:pos:R:3:dft_forces:R:3 n_atoms=8 username=eg475 dataset_type=train_compounds_train_configs filename=train.xyz hash_structure=388b0362bf0c941276e1557b39b0ea9e normal_mode_energy=0.1313540019513046 volume=124999.99999999991 normal_mode_temperature=T hash=56306589ff62c4217304f8ef4af87dad config_type=ethanol_rad3 mol_or_rad=rad3 smiles=CCO dft_energy=-4194.430392544125 compound=ethanol formula=C2H5O pbc="F F F"
C       -0.79762137      -0.03171116       0.22545069      -1.44424824       0.20211551      -0.15294624
C        0.54511228      -0.48870042      -0.13115033       0.72494920       1.27587182       0.51812710
O        1.52185026       0.35454036       0.54198712      -0.51278812      -0.10815597      -0.59024870
H       -1.67320739       0.02611700      -0.49504944       0.96929527      -0.10913839       0.83499240
H       -0.88993353       0.30837247       1.26975484      -0.38611097      -0.04808524      -0.20955625
H        0.68004200      -0.49187091      -1.19961873       0.23506612       0.23789940      -1.23855495
H        0.77750861      -1.50654952       0.14185110       0.16774072      -0.89525802       0.71108971
H        1.24343976       1.28161518       0.35243408       0.24609602      -0.55524912       0.12709692
8
Lattice="50.0 0.0 0.0 0.0 50.0 0.0 0.0 0.0 50.0" Properties=species:S:1:pos:R:3:dft_forces:R:3 n_atoms=8 username=eg475 dataset_type=train_compounds_train_configs filename=train.xyz hash_structure=0fcb441c36b7c460ea1a00f6a3f01e1f normal_mode_energy=0.13326926830396768 volume=124999.99999999991 normal_mode_temperature=T hash=9221fa1cda9ec63ec8c630ce8bc0fde2 config_type=ethanol_rad4 mol_or_rad=rad4 smiles=CCO dft_energy=-4194.4919816407555 compound=ethanol formula=C2H5O pbc="F F F"
C       -0.76903450       0.39374616       0.02358533       0.36977533      -0.44739690       0.26678015
C        0.53782944      -0.31651572      -0.21686664      -1.00164414      -0.95197745       1.19412764
O        1.54913925       0.15911615       0.63028429       0.36981760       0.53834150       0.49948063
H       -1.45396808       0.56912262      -0.81490124      -0.13071941       0.07521752       0.18706055
H       -1.09579185       0.51645580       1.08426926       0.05204184       0.02328103      -0.68240403
H        0.83433041      -0.24810385      -1.25966091       0.11598883      -0.04616435      -0.83887573
H        0.43742704      -1.43424708       0.05963734       0.03080846       1.05064983      -0.53587304
H        1.38505052       1.11322703       0.77161950       0.19393150      -0.24195118      -0.09029617
8
Lattice="50.0 0.0 0.0 0.0 50.0 0.0 0.0 0.0 50.0" Properties=species:S:1:pos:R:3:dft_forces:R:3 n_atoms=8 username=eg475 dataset_type=train_compounds_train_configs filename=train.xyz hash_structure=ca069bb8910cdc364e6419677ef56260 normal_mode_energy=0.2023360738627597 volume=124999.99999999991 normal_mode_temperature=T hash=e9d257ab137516947e83d5529ca25825 config_type=ethanol_rad4 mol_or_rad=rad4 smiles=CCO dft_energy=-4194.358577955032 compound=ethanol formula=C2H5O pbc="F F F"
C       -0.77988886       0.33762857       0.02134486      -2.21412338       1.88759679       0.57448633
C        0.51383275      -0.27355341      -0.23112254       1.54983501      -0.83569541      -0.40719226
O        1.56327995       0.14535022       0.66624749      -0.53205466       0.86424292      -0.85619137
H       -1.51642815       0.58774196      -0.80247172       0.81853918      -0.44538301       0.66229211
H       -1.08038699       0.78282715       1.04188438       0.70288471      -0.88132388      -1.29623134
H        0.78919170      -0.25648407      -1.35813441      -0.12300655       0.40094197       1.21825405
H        0.50973183      -1.34803149      -0.00873674      -0.35609889      -0.59665254      -0.04556772
H        1.59564359       1.12559759       0.59413408       0.15402457      -0.39372682       0.15015020
8
Lattice="50.0 0.0 0.0 0.0 50.0 0.0 0.0 0.0 50.0" Properties=species:S:1:pos:R:3:dft_forces:R:3 n_atoms=8 username=eg475 dataset_type=train_compounds_train_configs filename=train.xyz hash_structure=21153ec1bcd95a7331dcd5e1ae1d4bbd normal_mode_energy=0.16561390659345493 volume=124999.99999999991 normal_mode_temperature=T hash=52578ad906e450a255862216516acc21 config_type=ethanol_rad4 mol_or_rad=rad4 smiles=CCO dft_energy=-4194.398473959346 compound=ethanol formula=C2H5O pbc="F F F"
C       -0.77586971       0.38055861       0.01788274      -0.35306761       0.08383363      -0.22848609
C        0.53463201      -0.31559425      -0.22859676       0.05503717      -0.18429410      -0.69000074
O        1.54506701       0.15917782       0.64725562       0.00233288       0.80256004      -0.02886313
H       -1.54302314       0.65099164      -0.80016907       1.14766061      -0.43304255       1.35258723
H       -0.94622811       0.54869228       1.11611988      -0.38664373       0.08501080      -0.94306081
H        0.84266610      -0.28473305      -1.34073383      -0.27982467       0.05822264       1.10480902
H        0.49916687      -1.38545040       0.07707232      -0.36520030      -0.05433189      -0.44870028
H        1.43863058       1.13209729       0.72705133       0.17970565      -0.35795857      -0.11828519
8
Lattice="50.0 0.0 0.0 0.0 50.0 0.0 0.0 0.0 50.0" Properties=species:S:1:pos:R:3:dft_forces:R:3 n_atoms=8 username=eg475 dataset_type=train_compounds_train_configs filename=train.xyz hash_structure=dc1140b581e588f5831e4f0c21cc3304 normal_mode_energy=0.5570224310625195 volume=124999.99999999991 normal_mode_temperature=T hash=9bffbc4e44116fce9dcd332869ec7586 config_type=ethanol_rad5 mol_or_rad=rad5 smiles=CCO dft_energy=-4193.740269582504 compound=ethanol formula=C2H5O pbc="F F F"
C       -0.80221440       0.07682591      -0.23194918      -3.95962853      -1.19104914       1.09247927
C        0.54265119      -0.41977670      -0.37089712       0.64717701       1.80510047       1.33067774
O        1.30406565       0.05725589       0.77953535       0.52475019       0.46190065      -0.25307634
H       -1.51212193       0.44686183      -1.11108927       1.46818620      -0.77017204       1.90564761
H       -1.23538786      -0.54197778       0.72258816       0.01654306       2.12479891      -2.12727638
H        0.92589405      -0.13117010      -1.31444523       1.33251545       0.40278007      -1.47622311
H        0.50785381      -1.48778146      -0.29675519       0.50533180      -1.22903067       0.13969934
H        1.38586240       1.06295287       0.83600764      -0.53487519      -1.60432826      -0.61192812
8
Lattice="50.0 0.0 0.0 0.0 50.0 0.0 0.0 0.0 50.0" Properties=species:S:1:pos:R:3:dft_forces:R:3 n_atoms=8 username=eg475 dataset_type=train_compounds_train_configs filename=train.xyz hash_structure=19945bbfe170226d3aa984f302c3803b normal_mode_energy=0.3231920113830321 volume=124999.99999999991 normal_mode_temperature=T hash=d7c5e74b97f31958ddb8c1ec08e266d7 config_type=ethanol_rad5 mol_or_rad=rad5 smiles=CCO dft_energy=-4194.176111587371 compound=ethanol formula=C2H5O pbc="F F F"
C       -0.84367673      -0.00941069      -0.21858847      -1.74087653       2.40730740      -3.91034815
C        0.54502932      -0.33913323      -0.34266777       1.64818354      -2.01782128      -0.12598547
O        1.32026176       0.02282547       0.76216093       0.48149802       0.99868396       0.56166148
H       -1.31140153       0.45126358      -1.19357811       0.26964421      -0.88505431       1.93452713
H       -1.37377779       0.02007957       0.70262162      -0.46601294      -0.10224412       1.06202802
H        1.10921851      -0.05392424      -1.28100550      -0.95709970      -0.01627767       0.18525913
H        0.52825191      -1.45882156      -0.32572739       0.56856444      -0.04795194      -0.17919117
H        1.32843220       1.00346397       0.71425063       0.19609896      -0.33664204       0.47204902
8
Lattice="50.0 0.0 0.0 0.0 50.0 0.0 0.0 0.0 50.0" Properties=species:S:1:pos:R:3:dft_forces:R:3 n_atoms=8 username=eg475 dataset_type=train_compounds_train_configs filename=train.xyz hash_structure=6008f1f1f3c47db88a6ab9beb928f254 normal_mode_energy=0.30359372984908956 volume=124999.99999999991 normal_mode_temperature=T hash=fc2514ab4c0ac5fb96a70606fe8b7680 config_type=ethanol_rad5 mol_or_rad=rad5 smiles=CCO dft_energy=-4194.245360073537 compound=ethanol formula=C2H5O pbc="F F F"
C       -0.89982258       0.00492815      -0.27409952       0.69913152       1.08177335       2.02889500
C        0.55078683      -0.30740949      -0.34763175      -0.28682334      -2.49189722       1.03282911
O        1.37309644       0.00336609       0.78524802      -0.60042856      -0.10000781      -1.01966052
H       -1.48897687       0.04594553      -1.19638345      -0.31518701       0.09115260       0.33375867
H       -1.20082176       0.29067158       0.79992809      -0.39532591      -0.40793382      -1.74666195
H        0.95191800      -0.09609329      -1.33221501       0.73625739       0.74063750      -0.61200965
H        0.58413235      -1.43435077      -0.31000680       0.12458668       0.19862770      -0.27990925
H        1.19616335       0.91624177       1.00961629       0.03778925       0.88764770       0.26275859
8
Lattice="50.0 0.0 0.0 0.0 50.0 0.0 0.0 0.0 50.0" Properties=species:S:1:pos:R:3:dft_forces:R:3 n_atoms=8 username=eg475 dataset_type=train_compounds_train_configs filename=train.xyz hash_structure=e245f40ce865e74c3954791a23935635 normal_mode_energy=0.3759598658062476 volume=124999.99999999991 normal_mode_temperature=T hash=ca297110ce75a2966dbb0c084775b189 config_type=ethanol_rad5 mol_or_rad=rad5 smiles=CCO dft_energy=-4194.20745363597 compound=ethanol formula=C2H5O pbc="F F F"
C       -0.90229021       0.02285858      -0.26227008       0.48270656       0.47626253       1.95053096
C        0.55339553      -0.36466007      -0.38394454       0.47538591       0.99364484       0.27326607
O        1.37539889       0.01801477       0.82154979      -1.43465800       0.78262227      -2.18183834
H       -1.52230676       0.06003387      -1.15603894      -0.28472352       0.03296968      -0.09549346
H       -1.32204411       0.26858587       0.78881497       0.49939095      -0.45576784      -1.71756745
H        0.94490288       0.09525824      -1.42214899      -0.25386591      -1.01155651       1.97679615
H        0.61295230      -1.47996930      -0.39487198       0.36820835       0.33506043      -0.24957344
H        1.29066752       1.01456528       0.87072691       0.14755566      -1.15323539       0.04387951
8
Lattice="50.0 0.0 0.0 0.0 50.0 0.0 0.0 0.0 50.0" Properties=species:S:1:pos:R:3:dft_forces:R:3 n_atoms=8 username=eg475 dataset_type=train_compounds_train_configs filename=train.xyz hash_structure=739c815adecb208d01b5aa109cd506a8 normal_mode_energy=0.18452496034052446 volume=124999.99999999991 normal_mode_temperature=T hash=c898c8531157cdeb569b6da70375c77a config_type=ethanol_rad6 mol_or_rad=rad6 smiles=CCO dft_energy=-4194.779586186015 compound=ethanol formula=C2H5O pbc="F F F"
C       -0.92674955       0.04425486       0.08059020       1.78044848       2.81611370       0.79635101
C        0.46213369      -0.51489061       0.05896179      -0.07419256       0.61618713      -0.07510977
O        1.55064780       0.29018374       0.37553667      -0.85565200       0.36498972      -0.67208071
H       -0.92941339       1.08085688      -0.44039344      -0.19110941      -1.26497472       0.28778000
H       -1.59323692      -0.61925385      -0.39332008      -1.36216312      -1.02287890      -0.81642349
H       -1.28687671       0.30138249       1.11938042       0.03133768      -0.36429274      -0.31539334
H        0.58113434      -1.59889556       0.18029102       0.55332083       0.17790411       0.20613148
H        1.39514448       1.20981854      -0.00856923       0.11801009      -1.32304828       0.58874482
8
Lattice="50.0 0.0 0.0 0.0 50.0 0.0 0.0 0.0 50.0" Properties=species:S:1:pos:R:3:dft_forces:R:3 n_atoms=8 username=eg475 dataset_type=train_compounds_train_configs filename=train.xyz hash_structure=04357a787734076ee156a6aed9f37ce3 normal_mode_energy=0.22378607795785058 volume=124999.99999999991 normal_mode_temperature=T hash=50df7a8ae296f2827af7a3ecb753a6d3 config_type=ethanol_rad6 mol_or_rad=rad6 smiles=CCO dft_energy=-4194.457044470965 compound=ethanol formula=C2H5O pbc="F F F"
C       -0.91572286       0.07807836       0.08361606      -0.16644556      -0.68726293      -0.54430039
C        0.46952679      -0.48339671       0.00216530      -0.18622364      -0.42435523      -0.37911102
O        1.52409140       0.25150265       0.39838515       0.68277776       1.90079038       0.29551012
H       -1.16848706       0.73777604      -0.90028681       0.26082744      -0.88653820       2.28814283
H       -1.60412151      -0.87188194       0.04401409       0.58763648       1.88854837       0.33977001
H       -0.93276828       0.65277222       1.12179977      -0.79308542      -0.63243396      -1.87696970
H        0.76677630      -1.53622085       0.07103181      -0.55556263      -0.12876741      -0.08247678
H        1.30766558       1.22559323       0.39865225       0.17007557      -1.02998103      -0.04056507
8
Lattice="50.0 0.0 0.0 0.0 50.0 0.0 0.0 0.0 50.0" Properties=species:S:1:pos:R:3:dft_forces:R:3 n_atoms=8 username=eg475 dataset_type=train_compounds_train_configs filename=train.xyz hash_structure=d0902e7d9a3f90eb014d85782b4af794 normal_mode_energy=0.13883293836071126 volume=124999.99999999991 normal_mode_temperature=T hash=bb20261c9d1be2ee5d9b5cbc6e034d6f config_type=ethanol_rad6 mol_or_rad=rad6 smiles=CCO dft_energy=-4194.849293088387 compound=ethanol formula=C2H5O pbc="F F F"
C       -0.89764540       0.07210193       0.09480342      -0.53472882      -0.60896522      -0.29183968
C        0.47444916      -0.51493974       0.02195078      -0.17894594       0.31669668      -0.17148328
O        1.52028116       0.27146320       0.38191374       0.41247668       0.55113988       0.04676281
H       -1.08058826       0.85663903      -0.66490873       0.45968581       0.54590741       0.16487139
H       -1.65865789      -0.66446528      -0.27717646       0.27189623       0.04314297       0.89171786
H       -1.12626645       0.49292490       1.12723485      -0.17433966      -0.38160955      -0.71397046
H        0.74066332      -1.54951861       0.20919309      -0.35130096      -0.47103005       0.04111564
H        1.28012461       1.20357402       0.23339393       0.09525664       0.00471787       0.03282573
8
Lattice="50.0 0.0 0.0 0.0 50.0 0.0 0.0 0.0 50.0" Properties=species:S:1:pos:R:3:dft_forces:R:3 n_atoms=8 username=eg475 dataset_type=train_compounds_train_configs filename=train.xyz hash_structure=2a2230b66c58b9d2d7d6f715ca4e2708 normal_mode_energy=0.25649906053022214 volume=124999.99999999991 normal_mode_temperature=T hash=8448283b207def42302a89becf27979d config_type=ethanol_rad7 mol_or_rad=rad7 smiles=CCO dft_energy=-4194.714423276123 compound=ethanol formula=C2H5O pbc="F F F"
C       -0.96343482       0.07259268       0.06464562      -3.70389495      -0.36442339      -0.50991655
C        0.44883852      -0.13082621      -0.10852107       1.65733947       1.39117114       1.42686158
O        1.16486884       0.92057046       0.47641358      -1.15777692      -0.25388881       0.09894330
H       -1.34863115       1.03411683      -0.40931344       0.38763221      -0.53510354      -0.07291815
H       -1.66240601      -0.77860740      -0.35726819       1.42938473       1.25536226       0.60703234
H       -1.28506999       0.23867908       1.12114885       0.44783528      -0.33614017      -0.08700800
H        0.89448081      -0.51285409      -0.99528110       0.35483196      -0.71186624      -1.15052018
H        2.11753922       0.84554839       0.42134547       0.58464822      -0.44511125      -0.31247434
8
Lattice="50.0 0.0 0.0 0.0 50.0 0.0 0.0 0.0 50.0" Properties=species:S:1:pos:R:3:dft_forces:R:3 n_atoms=8 username=eg475 dataset_type=train_compounds_train_configs filename=train.xyz hash_structure=a6f208b5f67b23fe4b3c840fa62c71ee normal_mode_energy=0.18008569010406 volume=124999.99999999991 normal_mode_temperature=T hash=267dac575af4924939a096ce7bd77c86 config_type=ethanol_rad7 mol_or_rad=rad7 smiles=CCO dft_energy=-4194.781331671474 compound=ethanol formula=C2H5O pbc="F F F"
C       -1.02655463       0.06107793       0.05600758       0.22804257      -0.37502665      -0.66965629
C        0.46019735      -0.11421702      -0.06935482       0.55528061       0.42754405      -0.78660233
O        1.18844600       0.92202393       0.46484351       0.90625426      -0.03100671       0.61221422
H       -1.32093356       1.03507120      -0.43799658      -0.11314530      -0.61439669       0.06433844
H       -1.56960766      -0.84013490      -0.43842906       0.56837254       1.39429134       0.93334107
H       -1.24380223       0.20679537       1.13626337      -0.37218787      -0.36608675      -0.21698946
H        0.92546946      -0.39900131      -1.03620900      -0.52086863      -0.58198578       0.05310712
H        2.16735757       0.74040675       0.37684008      -1.25174817       0.14666719       0.01024722
8
Lattice="50.0 0.0 0.0 0.0 50.0 0.0 0.0 0.0 50.0" Properties=species:S:1:pos:R:3:dft_forces:R:3 n_atoms=8 username=eg475 dataset_type=train_compounds_train_configs filename=train.xyz hash_structure=8396d7099cc970f6dbfa0503b738defa normal_mode_energy=0.09749454086996225 volume=124999.99999999991 normal_mode_temperature=T hash=3a61c46c27ac812922dfea873cc44b30 config_type=ethanol_rad7 mol_or_rad=rad7 smiles=CCO dft_energy=-4194.8658325655 compound=ethanol formula=C2H5O pbc="F F F"
C       -1.02162708       0.06172018       0.06555530      -0.40858052      -0.41617146      -0.78352752
C        0.45668132      -0.05559489      -0.12307218      -0.11312417      -0.78305481      -0.20751718
O        1.19543232       0.89649110       0.50073214       0.44885176       0.34311042       0.14485978
H       -1.41774238       0.87240908      -0.64743652      -0.06671488      -0.70863298       0.80922358
H       -1.51420693      -0.94010451      -0.19985248       0.38145988       1.16667409       0.19850390
H       -1.30240151       0.31666939       1.13003501       0.29847098      -0.05483220      -0.77194723
H        0.93709168      -0.52440490      -1.02384710      -0.61497153       0.25667344       0.48521921
H        2.12777485       0.71640046       0.29806512       0.07460849       0.19623349       0.12518546
1
Lattice="40.0 0.0 0.0 0.0 40.0 0.0 0.0 0.0 40.0" Properties=species:S:1:pos:R:3:initial_charges:R:1:xtb2_forces:R:3:forces:R:3 dft_energy=-1028.4321581399468 config_type=isolated_atom dataset_type=isolated_atom xtb2_energy=-48.847445262804705 energy=-102.57117256025786 dipole="0.0 0.0 0.0" free_energy=-102.57117256025786 pbc="F F F"
C        0.00000000       0.00000000       0.00000000       0.00000000      -0.00000000      -0.00000000      -0.00000000      -0.00000000      -0.00000000      -0.00000000
1
Lattice="40.0 0.0 0.0 0.0 40.0 0.0 0.0 0.0 40.0" Properties=species:S:1:pos:R:3:initial_charges:R:1:xtb2_forces:R:3:forces:R:3 dft_energy=-13.547478676206193 config_type=isolated_atom dataset_type=isolated_atom xtb2_energy=-10.707211383396714 energy=-102.57117256025786 dipole="0.0 0.0 0.0" free_energy=-102.57117256025786 pbc="F F F"
H        0.00000000       0.00000000       0.00000000       0.00000000      -0.00000000      -0.00000000      -0.00000000      -0.00000000      -0.00000000      -0.00000000
1
Lattice="40.0 0.0 0.0 0.0 40.0 0.0 0.0 0.0 40.0" Properties=species:S:1:pos:R:3:initial_charges:R:1:xtb2_forces:R:3:forces:R:3 dft_energy=-2040.0734198446598 config_type=isolated_atom dataset_type=isolated_atom xtb2_energy=-102.57117256025786 energy=-102.57117256025786 dipole="0.0 0.0 0.0" free_energy=-102.57117256025786 pbc="F F F"
O        0.00000000       0.00000000       0.00000000       0.00000000      -0.00000000      -0.00000000      -0.00000000      -0.00000000      -0.00000000      -0.00000000
