
                                 *****************
                                 * O   R   C   A *
                                 *****************

           --- An Ab Initio, DFT and Semiempirical electronic structure package ---

                  #######################################################
                  #                        -***-                        #
                  #          Department of theory and spectroscopy      #
                  #               Directorship: Frank Neese             #
                  #        Max Planck Institute fuer Kohlenforschung    #
                  #                Kaiser Wilhelm Platz 1               #
                  #                 D-45470 Muelheim/Ruhr               #
                  #                      Germany                        #
                  #                                                     #
                  #                  All rights reserved                #
                  #                        -***-                        #
                  #######################################################


                         Program Version 4.2.1 -  RELEASE  -


 With contributions from (in alphabetic order):
   Daniel Aravena         : Magnetic Suceptibility
   Michael Atanasov       : Ab Initio Ligand Field Theory (pilot matlab implementation)
   Alexander A. Auer      : GIAO ZORA, VPT2
   Ute Becker             : Parallelization
   Giovanni Bistoni       : ED, misc. LED, open-shell LED, HFLD
   Martin Brehm           : Molecular dynamics
   Dmytro Bykov           : SCF Hessian
   Vijay G. Chilkuri      : MRCI spin determinant printing, contributions to CSF-ICE
   Dipayan Datta          : RHF DLPNO-CCSD density
   Achintya Kumar Dutta   : EOM-CC, STEOM-CC
   Dmitry Ganyushin       : Spin-Orbit,Spin-Spin,Magnetic field MRCI
   Miquel Garcia          : C-PCM Hessian, Gaussian charge scheme
   Yang Guo               : DLPNO-NEVPT2, CIM, IAO-localization
   Andreas Hansen         : Spin unrestricted coupled pair/coupled cluster methods
   Benjamin Helmich-Paris : CASSCF linear response (MC-RPA)
   Lee Huntington         : MR-EOM, pCC
   Robert Izsak           : Overlap fitted RIJCOSX, COSX-SCS-MP3, EOM
   Christian Kollmar      : KDIIS, OOCD, Brueckner-CCSD(T), CCSD density
   Simone Kossmann        : Meta GGA functionals, TD-DFT gradient, OOMP2, MP2 Hessian
   Martin Krupicka        : AUTO-CI
   Lucas Lang             : DCDCAS
   Dagmar Lenk            : GEPOL surface, SMD
   Dimitrios Liakos       : Extrapolation schemes; Compound Job, initial MDCI parallelization
   Dimitrios Manganas     : Further ROCIS development; embedding schemes
   Dimitrios Pantazis     : SARC Basis sets
   Taras Petrenko         : DFT Hessian,TD-DFT gradient, ASA, ECA, R-Raman, ABS, FL, XAS/XES, NRVS
   Peter Pinski           : DLPNO-MP2, DLPNO-MP2 Gradient
   Christoph Reimann      : Effective Core Potentials
   Marius Retegan         : Local ZFS, SOC
   Christoph Riplinger    : Optimizer, TS searches, QM/MM, DLPNO-CCSD(T), (RO)-DLPNO pert. Triples
   Tobias Risthaus        : Range-separated hybrids, TD-DFT gradient, RPA, STAB
   Michael Roemelt        : Original ROCIS implementation
   Masaaki Saitow         : Open-shell DLPNO-CCSD energy and density
   Barbara Sandhoefer     : DKH picture change effects
   Avijit Sen             : IP-ROCIS
   Kantharuban Sivalingam : CASSCF convergence, NEVPT2, FIC-MRCI
   Bernardo de Souza      : ESD, SOC TD-DFT
   Georgi Stoychev        : AutoAux, RI-MP2 NMR
   Willem Van den Heuvel  : Paramagnetic NMR
   Boris Wezisla          : Elementary symmetry handling
   Frank Wennmohs         : Technical directorship


 We gratefully acknowledge several colleagues who have allowed us to
 interface, adapt or use parts of their codes:
   Stefan Grimme, W. Hujo, H. Kruse,             : VdW corrections, initial TS optimization,
                  C. Bannwarth                     DFT functionals, gCP, sTDA/sTD-DF
   Ed Valeev, F. Pavosevic, A. Kumar             : LibInt (2-el integral package), F12 methods
   Garnet Chan, S. Sharma, J. Yang, R. Olivares  : DMRG
   Ulf Ekstrom                                   : XCFun DFT Library
   Mihaly Kallay                                 : mrcc  (arbitrary order and MRCC methods)
   Andreas Klamt, Michael Diedenhofen            : otool_cosmo (COSMO solvation model)
   Jiri Pittner, Ondrej Demel                    : Mk-CCSD
   Frank Weinhold                                : gennbo (NPA and NBO analysis)
   Christopher J. Cramer and Donald G. Truhlar   : smd solvation model
   Lars Goerigk                                  : TD-DFT with DH, B97 family of functionals
   V. Asgeirsson, H. Jonsson                     : NEB implementation
   FAccTs GmbH                                   : IRC, NEB, NEB-TS, Multilevel, MM, QM/MM, CI optimization
   S Lehtola, MJT Oliveira, MAL Marques          : LibXC Library


 Your calculation uses the libint2 library for the computation of 2-el integrals
 For citations please refer to: http://libint.valeyev.net

 Your ORCA version has been built with support for libXC version: 4.2.3
 For citations please refer to: https://tddft.org/programs/libxc/

 This ORCA versions uses:
   CBLAS   interface :  Fast vector & matrix operations
   LAPACKE interface :  Fast linear algebra routines
   SCALAPACK package :  Parallel linear algebra routines


Your calculation utilizes the atom-pairwise dispersion correction
with the Becke-Johnson damping scheme (D3BJ)
Cite in your paper:
S.Grimme, S.Ehrlich, L.Goerigk, J Comput Chem, (2011), 32, 1456–1465 
S.Grimme, J.Antony, S.Ehrlich and H.Krieg, J.Chem.Phys., 132, (2010), 154104 
   

----- Orbital basis set information -----
Your calculation utilizes the basis: def2-SV(P)
   F. Weigend and R. Ahlrichs, Phys. Chem. Chem. Phys. 7, 3297 (2005).

----- AuxJ basis set information -----
Your calculation utilizes the auxiliary basis: def2/J
   F. Weigend, Phys. Chem. Chem. Phys. 8, 1057 (2006).

================================================================================
                                        WARNINGS
                       Please study these warnings very carefully!
================================================================================


WARNING: Geometry Optimization
  ===> : Switching off AutoStart
         For restart on a previous wavefunction, please use MOREAD

INFO   : the flag for use of LIBINT has been found!

================================================================================
                                       INPUT FILE
================================================================================
NAME = orca9.inp
|  1> ! UKS B3LYP def2-SV(P) def2/J D3BJ Opt
|  2> %scf Convergence VeryTight
|  3> SmearTemp 2000
|  4> maxiter 500
|  5> end
|  6> *xyz 0 1
|  7> C 2.492067 -0.10199 0.750943
|  8> C 1.964945 0.472489 -0.525173
|  9> C 0.621673 -0.016878 -0.937597
| 10> C -0.355391 -0.223362 0.185671
| 11> C -1.743388 0.026683 -0.398727
| 12> C -2.830867 -0.117776 0.625658
| 13> H 1.667984 -0.324057 1.439536
| 14> H 3.108246 -1.002244 0.563589
| 15> H 3.133691 0.686736 1.213678
| 16> H 2.689622 0.190186 -1.330909
| 17> H 1.940868 1.579374 -0.497896
| 18> H 0.691511 -0.949482 -1.55262
| 19> H 0.194223 0.743384 -1.640306
| 20> H -0.199371 0.443689 1.046249
| 21> H -0.349703 -1.301888 0.457392
| 22> H -1.692843 1.050951 -0.812386
| 23> H -1.874385 -0.711664 -1.229107
| 24> H -3.508627 0.76658 0.662855
| 25> H -3.482032 -0.97446 0.336336
| 26> H -2.468223 -0.335904 1.642814
| 27> *
| 28> 
| 29>                          ****END OF INPUT****
================================================================================

                       *****************************
                       * Geometry Optimization Run *
                       *****************************

Geometry optimization settings:
Update method            Update   .... BFGS
Choice of coordinates    CoordSys .... Z-matrix Internals
Initial Hessian          InHess   .... Almoef's Model

Convergence Tolerances:
Energy Change            TolE     ....  5.0000e-06 Eh
Max. Gradient            TolMAXG  ....  3.0000e-04 Eh/bohr
RMS Gradient             TolRMSG  ....  1.0000e-04 Eh/bohr
Max. Displacement        TolMAXD  ....  4.0000e-03 bohr
RMS Displacement         TolRMSD  ....  2.0000e-03 bohr
Strict Convergence                ....  False
------------------------------------------------------------------------------
                        ORCA OPTIMIZATION COORDINATE SETUP
------------------------------------------------------------------------------

The optimization will be done in new redundant internal coordinates
Making redundant internal coordinates   ...  (new redundants) done
Evaluating the initial hessian          ...  (Almloef) done
Evaluating the coordinates              ...  done
Calculating the B-matrix                .... done
Calculating the G-matrix                .... done
Diagonalizing the G-matrix              .... done
Small eigenvalue found = 1.310e-02
The first mode is                       ....   46
The number of degrees of freedom        ....   54

    -----------------------------------------------------------------
                    Redundant Internal Coordinates


    -----------------------------------------------------------------
         Definition                    Initial Value    Approx d2E/dq
    -----------------------------------------------------------------
      1. B(C   1,C   0)                  1.4954         0.424139   
      2. B(C   2,C   1)                  1.4879         0.436002   
      3. B(C   3,C   2)                  1.5030         0.412523   
      4. B(C   4,C   3)                  1.5266         0.378237   
      5. B(C   5,C   4)                  1.5009         0.415651   
      6. B(H   6,C   0)                  1.0966         0.351441   
      7. B(H   7,C   0)                  1.1069         0.338419   
      8. B(H   8,C   0)                  1.1171         0.325987   
      9. B(H   9,C   1)                  1.1198         0.322701   
     10. B(H  10,C   1)                  1.1075         0.337700   
     11. B(H  11,C   2)                  1.1193         0.323327   
     12. B(H  12,C   2)                  1.1200         0.322463   
     13. B(H  13,C   3)                  1.1000         0.347173   
     14. B(H  14,C   3)                  1.1122         0.331846   
     15. B(H  15,C   4)                  1.1058         0.339794   
     16. B(H  16,C   4)                  1.1189         0.323876   
     17. B(H  17,C   5)                  1.1148         0.328716   
     18. B(H  18,C   5)                  1.1143         0.329366   
     19. B(H  19,C   5)                  1.1017         0.344977   
     20. A(H   7,C   0,H   8)          108.9424         0.283589   
     21. A(C   1,C   0,H   7)          111.3594         0.327798   
     22. A(C   1,C   0,H   6)          110.4099         0.329848   
     23. A(H   6,C   0,H   7)          111.0945         0.286929   
     24. A(H   6,C   0,H   8)          108.3303         0.285259   
     25. A(C   1,C   0,H   8)          106.5411         0.325784   
     26. A(C   2,C   1,H  10)          108.4159         0.329178   
     27. A(C   0,C   1,H  10)          111.7521         0.327683   
     28. A(C   2,C   1,H   9)          107.5695         0.326721   
     29. A(C   0,C   1,H   9)          106.8003         0.325241   
     30. A(H   9,C   1,H  10)          106.4838         0.283050   
     31. A(C   0,C   1,C   2)          115.3659         0.381398   
     32. A(H  11,C   2,H  12)          104.1601         0.281117   
     33. A(C   1,C   2,C   3)          115.1447         0.379566   
     34. A(C   3,C   2,H  11)          109.6781         0.323864   
     35. A(C   1,C   2,H  11)          111.7155         0.326825   
     36. A(C   1,C   2,H  12)          107.1688         0.326681   
     37. A(C   3,C   2,H  12)          108.3028         0.323722   
     38. A(C   2,C   3,C   4)          106.4067         0.370368   
     39. A(H  13,C   3,H  14)          113.3404         0.285508   
     40. A(C   4,C   3,H  14)          104.8917         0.320656   
     41. A(C   2,C   3,H  14)          108.2081         0.325251   
     42. A(C   4,C   3,H  13)          109.2161         0.323036   
     43. A(C   2,C   3,H  13)          114.1538         0.327678   
     44. A(H  15,C   4,H  16)          109.8145         0.283482   
     45. A(C   5,C   4,H  16)          110.9885         0.324356   
     46. A(C   3,C   4,H  16)          106.4075         0.319385   
     47. A(C   5,C   4,H  15)          112.1835         0.326926   
     48. A(C   3,C   4,H  15)          104.6761         0.321901   
     49. A(C   3,C   4,C   5)          112.4398         0.370850   
     50. A(C   4,C   5,H  17)          112.7619         0.325148   
     51. A(H  18,C   5,H  19)          106.2522         0.284893   
     52. A(H  17,C   5,H  19)          109.0493         0.284806   
     53. A(C   4,C   5,H  19)          114.2482         0.327743   
     54. A(H  17,C   5,H  18)          105.2642         0.282764   
     55. A(C   4,C   5,H  18)          108.6742         0.325254   
     56. D(H   9,C   1,C   0,H   8)     91.3771         0.014228   
     57. D(H  10,C   1,C   0,H   7)   -143.3697         0.014228   
     58. D(H   9,C   1,C   0,H   7)    -27.2923         0.014228   
     59. D(H  10,C   1,C   0,H   8)    -24.7003         0.014228   
     60. D(H   9,C   1,C   0,H   6)   -151.1999         0.014228   
     61. D(C   2,C   1,C   0,H   8)   -149.1436         0.014228   
     62. D(C   2,C   1,C   0,H   7)     92.1870         0.014228   
     63. D(C   2,C   1,C   0,H   6)    -31.7206         0.014228   
     64. D(H  10,C   1,C   0,H   6)     92.7227         0.014228   
     65. D(H  11,C   2,C   1,H   9)     31.2186         0.015022   
     66. D(C   3,C   2,C   1,H  10)    -88.0339         0.015022   
     67. D(C   3,C   2,C   1,C   0)     38.1322         0.015022   
     68. D(H  11,C   2,C   1,C   0)    -87.8362         0.015022   
     69. D(H  11,C   2,C   1,H  10)    145.9977         0.015022   
     70. D(H  12,C   2,C   1,H  10)     32.5042         0.015022   
     71. D(H  12,C   2,C   1,H   9)    -82.2748         0.015022   
     72. D(H  12,C   2,C   1,C   0)    158.6704         0.015022   
     73. D(C   3,C   2,C   1,H   9)    157.1870         0.015022   
     74. D(H  14,C   3,C   2,H  11)     29.4031         0.013476   
     75. D(H  14,C   3,C   2,C   1)    -97.6060         0.013476   
     76. D(H  13,C   3,C   2,H  12)    -90.3210         0.013476   
     77. D(H  13,C   3,C   2,H  11)    156.6038         0.013476   
     78. D(H  13,C   3,C   2,C   1)     29.5946         0.013476   
     79. D(C   4,C   3,C   2,H  11)    -82.8611         0.013476   
     80. D(C   4,C   3,C   2,H  12)     30.2141         0.013476   
     81. D(H  14,C   3,C   2,H  12)    142.4783         0.013476   
     82. D(C   4,C   3,C   2,C   1)    150.1298         0.013476   
     83. D(H  15,C   4,C   3,C   2)    -56.8025         0.011408   
     84. D(C   5,C   4,C   3,H  14)     66.6206         0.011408   
     85. D(C   5,C   4,C   3,H  13)    -55.1716         0.011408   
     86. D(C   5,C   4,C   3,C   2)   -178.8378         0.011408   
     87. D(H  16,C   4,C   3,H  14)    -55.0868         0.011408   
     88. D(H  16,C   4,C   3,H  13)   -176.8790         0.011408   
     89. D(H  16,C   4,C   3,C   2)     59.4548         0.011408   
     90. D(H  15,C   4,C   3,H  14)   -171.3440         0.011408   
     91. D(H  15,C   4,C   3,H  13)     66.8638         0.011408   
     92. D(H  19,C   5,C   4,H  16)    121.5957         0.013676   
     93. D(H  19,C   5,C   4,H  15)   -115.1391         0.013676   
     94. D(H  19,C   5,C   4,C   3)      2.5335         0.013676   
     95. D(H  18,C   5,C   4,H  16)      3.1555         0.013676   
     96. D(H  18,C   5,C   4,H  15)    126.4208         0.013676   
     97. D(H  18,C   5,C   4,C   3)   -115.9067         0.013676   
     98. D(H  17,C   5,C   4,H  16)   -113.1515         0.013676   
     99. D(H  17,C   5,C   4,H  15)     10.1138         0.013676   
    100. D(H  17,C   5,C   4,C   3)    127.7863         0.013676   
    -----------------------------------------------------------------

Number of atoms                         .... 20
Number of degrees of freedom            .... 100

Time needed for optimization step       :     3.38 sec

         *************************************************************
         *                GEOMETRY OPTIMIZATION CYCLE   1            *
         *************************************************************
---------------------------------
CARTESIAN COORDINATES (ANGSTROEM)
---------------------------------
  C      2.492067   -0.101990    0.750943
  C      1.964945    0.472489   -0.525173
  C      0.621673   -0.016878   -0.937597
  C     -0.355391   -0.223362    0.185671
  C     -1.743388    0.026683   -0.398727
  C     -2.830867   -0.117776    0.625658
  H      1.667984   -0.324057    1.439536
  H      3.108246   -1.002244    0.563589
  H      3.133691    0.686736    1.213678
  H      2.689622    0.190186   -1.330909
  H      1.940868    1.579374   -0.497896
  H      0.691511   -0.949482   -1.552620
  H      0.194223    0.743384   -1.640306
  H     -0.199371    0.443689    1.046249
  H     -0.349703   -1.301888    0.457392
  H     -1.692843    1.050951   -0.812386
  H     -1.874385   -0.711664   -1.229107
  H     -3.508627    0.766580    0.662855
  H     -3.482032   -0.974460    0.336336
  H     -2.468223   -0.335904    1.642814

----------------------------
CARTESIAN COORDINATES (A.U.)
----------------------------
  NO LB      ZA    FRAG     MASS         X           Y           Z
   0 C     6.0000    0    12.011    4.709324   -0.192733    1.419077
   1 C     6.0000    0    12.011    3.713208    0.892875   -0.992433
   2 C     6.0000    0    12.011    1.174792   -0.031895   -1.771802
   3 C     6.0000    0    12.011   -0.671592   -0.422093    0.350867
   4 C     6.0000    0    12.011   -3.294526    0.050424   -0.753485
   5 C     6.0000    0    12.011   -5.349563   -0.222564    1.182322
   6 H     1.0000    0     1.008    3.152033   -0.612379    2.720329
   7 H     1.0000    0     1.008    5.873734   -1.893967    1.065029
   8 H     1.0000    0     1.008    5.921818    1.297743    2.293519
   9 H     1.0000    0     1.008    5.082649    0.359399   -2.515054
  10 H     1.0000    0     1.008    3.667709    2.984584   -0.940887
  11 H     1.0000    0     1.008    1.306766   -1.794261   -2.934027
  12 H     1.0000    0     1.008    0.367028    1.404792   -3.099729
  13 H     1.0000    0     1.008   -0.376757    0.838451    1.977124
  14 H     1.0000    0     1.008   -0.660843   -2.460212    0.864346
  15 H     1.0000    0     1.008   -3.199010    1.986010   -1.535187
  16 H     1.0000    0     1.008   -3.542074   -1.344850   -2.322676
  17 H     1.0000    0     1.008   -6.630344    1.448626    1.252614
  18 H     1.0000    0     1.008   -6.580087   -1.841463    0.635583
  19 H     1.0000    0     1.008   -4.664266   -0.634767    3.104469

--------------------------------
INTERNAL COORDINATES (ANGSTROEM)
--------------------------------
 C      0   0   0     0.000000000000     0.00000000     0.00000000
 C      1   0   0     1.495445007274     0.00000000     0.00000000
 C      2   1   0     1.487935913421   115.36588915     0.00000000
 C      3   2   1     1.503003892934   115.14465654    38.13220764
 C      4   3   2     1.526623462560   106.40670622   150.12978010
 C      5   4   3     1.500947569486   112.43976484   181.16215172
 H      1   2   3     1.096625215389   110.40994946   328.27941115
 H      1   2   3     1.106903494381   111.35939761    92.18700692
 H      1   2   3     1.117091643813   106.54112467   210.85636728
 H      2   1   3     1.119849204060   106.80030552   240.52070686
 H      2   1   3     1.107482794396   111.75206400   124.44330947
 H      3   2   1     1.119321605969   111.71551640   272.16383555
 H      3   2   1     1.120049887204   107.16878589   158.67037626
 H      4   3   2     1.099951713070   114.15384666    29.59463198
 H      4   3   2     1.112242324254   108.20810437   262.39395838
 H      5   4   3     1.105799937208   104.67611665   303.19754046
 H      5   4   3     1.118859888823   106.40750805    59.45477863
 H      6   5   4     1.114821855341   112.76193319   127.78633762
 H      6   5   4     1.114284771845   108.67421757   244.09333274
 H      6   5   4     1.101679092774   114.24820821     2.53349063

---------------------------
INTERNAL COORDINATES (A.U.)
---------------------------
 C      0   0   0     0.000000000000     0.00000000     0.00000000
 C      1   0   0     2.825981512088     0.00000000     0.00000000
 C      2   1   0     2.811791381192   115.36588915     0.00000000
 C      3   2   1     2.840265735864   115.14465654    38.13220764
 C      4   3   2     2.884900253857   106.40670622   150.12978010
 C      5   4   3     2.836379847704   112.43976484   181.16215172
 H      1   2   3     2.072321328638   110.40994946   328.27941115
 H      1   2   3     2.091744461061   111.35939761    92.18700692
 H      1   2   3     2.110997273299   106.54112467   210.85636728
 H      2   1   3     2.116208306963   106.80030552   240.52070686
 H      2   1   3     2.092839179438   111.75206400   124.44330947
 H      3   2   1     2.115211291062   111.71551640   272.16383555
 H      3   2   1     2.116587543144   107.16878589   158.67037626
 H      4   3   2     2.078607498239   114.15384666    29.59463198
 H      4   3   2     2.101833387395   108.20810437   262.39395838
 H      5   4   3     2.089659040231   104.67611665   303.19754046
 H      5   4   3     2.114338772106   106.40750805    59.45477863
 H      6   5   4     2.106707994704   112.76193319   127.78633762
 H      6   5   4     2.105693053985   108.67421757   244.09333274
 H      6   5   4     2.081871772810   114.24820821     2.53349063

---------------------
BASIS SET INFORMATION
---------------------
There are 2 groups of distinct atoms

 Group   1 Type C   : 7s4p1d contracted to 3s2p1d pattern {511/31/1}
 Group   2 Type H   : 4s contracted to 2s pattern {31}

Atom   0C    basis set group =>   1
Atom   1C    basis set group =>   1
Atom   2C    basis set group =>   1
Atom   3C    basis set group =>   1
Atom   4C    basis set group =>   1
Atom   5C    basis set group =>   1
Atom   6H    basis set group =>   2
Atom   7H    basis set group =>   2
Atom   8H    basis set group =>   2
Atom   9H    basis set group =>   2
Atom  10H    basis set group =>   2
Atom  11H    basis set group =>   2
Atom  12H    basis set group =>   2
Atom  13H    basis set group =>   2
Atom  14H    basis set group =>   2
Atom  15H    basis set group =>   2
Atom  16H    basis set group =>   2
Atom  17H    basis set group =>   2
Atom  18H    basis set group =>   2
Atom  19H    basis set group =>   2
---------------------------------
AUXILIARY/J BASIS SET INFORMATION
---------------------------------
There are 2 groups of distinct atoms

 Group   1 Type C   : 12s5p4d2f1g contracted to 6s4p3d1f1g pattern {711111/2111/211/2/1}
 Group   2 Type H   : 5s2p1d contracted to 3s1p1d pattern {311/2/1}

Atom   0C    basis set group =>   1
Atom   1C    basis set group =>   1
Atom   2C    basis set group =>   1
Atom   3C    basis set group =>   1
Atom   4C    basis set group =>   1
Atom   5C    basis set group =>   1
Atom   6H    basis set group =>   2
Atom   7H    basis set group =>   2
Atom   8H    basis set group =>   2
Atom   9H    basis set group =>   2
Atom  10H    basis set group =>   2
Atom  11H    basis set group =>   2
Atom  12H    basis set group =>   2
Atom  13H    basis set group =>   2
Atom  14H    basis set group =>   2
Atom  15H    basis set group =>   2
Atom  16H    basis set group =>   2
Atom  17H    basis set group =>   2
Atom  18H    basis set group =>   2
Atom  19H    basis set group =>   2
------------------------------------------------------------------------------
                           ORCA GTO INTEGRAL CALCULATION
------------------------------------------------------------------------------

                         BASIS SET STATISTICS AND STARTUP INFO

 # of primitive gaussian shells          ...  128
 # of primitive gaussian functions       ...  200
 # of contracted shells                  ...   64
 # of contracted basis functions         ...  112
 Highest angular momentum                ...    2
 Maximum contraction depth               ...    5
 Integral package used                   ... LIBINT
 Integral threshhold            Thresh   ...  1.000e-12
 Primitive cut-off              TCut     ...  1.000e-14


------------------------------ INTEGRAL EVALUATION ----------------------------


 * One electron integrals 
 Pre-screening matrix                    ... done
 Shell pair data                         ... done (   0.001 sec)

-------------------------------------------------------------------------------
                                 ORCA SCF
-------------------------------------------------------------------------------

------------
SCF SETTINGS
------------
Hamiltonian:
 Density Functional     Method          .... DFT(GTOs)
 Exchange Functional    Exchange        .... B88
   X-Alpha parameter    XAlpha          ....  0.666667
   Becke's b parameter  XBeta           ....  0.004200
 Correlation Functional Correlation     .... LYP
 LDA part of GGA corr.  LDAOpt          .... VWN-5
 Gradients option       PostSCFGGA      .... off
 Hybrid DFT is turned on
   Fraction HF Exchange ScalHFX         ....  0.200000
   Scaling of DF-GGA-X  ScalDFX         ....  0.720000
   Scaling of DF-GGA-C  ScalDFC         ....  0.810000
   Scaling of DF-LDA-C  ScalLDAC        ....  1.000000
   Perturbative correction              ....  0.000000
   Density functional embedding theory  .... OFF
   NL short-range parameter             ....  4.800000


General Settings:
 Integral files         IntName         .... orca9
 Hartree-Fock type      HFTyp           .... UHF
 Total Charge           Charge          ....    0
 Multiplicity           Mult            ....    1
 Number of Electrons    NEL             ....   50
 Basis Dimension        Dim             ....  112
 Nuclear Repulsion      ENuc            ....    251.8830094917 Eh

Convergence Acceleration:
 DIIS                   CNVDIIS         .... on
   Start iteration      DIISMaxIt       ....    12
   Startup error        DIISStart       ....  0.200000
   # of expansion vecs  DIISMaxEq       ....     5
   Bias factor          DIISBfac        ....   1.050
   Max. coefficient     DIISMaxC        ....  10.000
 Newton-Raphson         CNVNR           .... off
 SOSCF                  CNVSOSCF        .... off
 Level Shifting         CNVShift        .... on
   Level shift para.    LevelShift      ....    0.2500
   Turn off err/grad.   ShiftErr        ....    0.0010
 Zerner damping         CNVZerner       .... off
 Static damping         CNVDamp         .... on
   Fraction old density DampFac         ....    0.7000
   Max. Damping (<1)    DampMax         ....    0.9800
   Min. Damping (>=0)   DampMin         ....    0.0000
   Turn off err/grad.   DampErr         ....    0.1000
 Fernandez-Rico         CNVRico         .... off

SCF Procedure:
 Maximum # iterations   MaxIter         ....   500
 SCF integral mode      SCFMode         .... Direct
   Integral package                     .... LIBINT
 Reset frequency        DirectResetFreq ....    20
 Integral Threshold     Thresh          ....  1.000e-12 Eh
 Primitive CutOff       TCut            ....  1.000e-14 Eh

Convergence Tolerance:
 Convergence Check Mode ConvCheckMode   .... Total+1el-Energy
 Convergence forced     ConvForced      .... 0
 Energy Change          TolE            ....  1.000e-09 Eh
 1-El. energy change                    ....  1.000e-06 Eh
 DIIS Error             TolErr          ....  1.000e-08


Diagonalization of the overlap matrix:
Smallest eigenvalue                        ... 1.272e-03
Time for diagonalization                   ...    0.002 sec
Threshold for overlap eigenvalues          ... 1.000e-08
Number of eigenvalues below threshold      ... 0
Time for construction of square roots      ...    3.745 sec
Total time needed                          ...    3.747 sec

-------------------
DFT GRID GENERATION
-------------------

General Integration Accuracy     IntAcc      ...  4.340
Radial Grid Type                 RadialGrid  ... Gauss-Chebyshev
Angular Grid (max. acc.)         AngularGrid ... Lebedev-110
Angular grid pruning method      GridPruning ... 3 (G Style)
Weight generation scheme         WeightScheme... Becke
Basis function cutoff            BFCut       ...    1.0000e-12
Integration weight cutoff        WCut        ...    1.0000e-14
Grids for H and He will be reduced by one unit

# of grid points (after initial pruning)     ...  21052 (   0.0 sec)
# of grid points (after weights+screening)   ...  19298 (   0.0 sec)
nearest neighbour list constructed           ...    0.0 sec
Grid point re-assignment to atoms done       ...    0.0 sec
Grid point division into batches done        ...    0.0 sec
Reduced shell lists constructed in    0.1 sec

Total number of grid points                  ...    19298
Total number of batches                      ...      312
Average number of points per batch           ...       61
Average number of grid points per atom       ...      965
Average number of shells per batch           ...    50.81 (79.40%)
Average number of basis functions per batch  ...    87.83 (78.42%)
Average number of large shells per batch     ...    41.86 (82.38%)
Average number of large basis fcns per batch ...    72.24 (82.25%)
Maximum spatial batch extension              ...  17.05, 21.35, 22.44 au
Average spatial batch extension              ...   3.48,  3.71,  3.80 au

Time for grid setup =    0.842 sec

------------------------------
INITIAL GUESS: MODEL POTENTIAL
------------------------------
Loading Hartree-Fock densities                     ... done
Calculating cut-offs                               ... done
Setting up the integral package                    ... done
Initializing the effective Hamiltonian             ... done
Starting the Coulomb interaction                   ... done (   0.1 sec)
Reading the grid                                   ... done
Mapping shells                                     ... done
Starting the XC term evaluation                    ... done (   0.2 sec)
  promolecular density results
     # of electrons  =     50.009196725
     EX              =    -35.023792857
     EC              =     -1.578224876
     EX+EC           =    -36.602017733
Transforming the Hamiltonian                       ... done (   0.0 sec)
Diagonalizing the Hamiltonian                      ... done (   0.0 sec)
Back transforming the eigenvectors                 ... done (   0.0 sec)
Now organizing SCF variables                       ... done
                      ------------------
                      INITIAL GUESS DONE (   1.2 sec)
                      ------------------
--------------
SCF ITERATIONS
--------------
ITER       Energy         Delta-E        Max-DP      RMS-DP      [F,P]     Damp
               ***  Starting incremental Fock matrix formation  ***
  0   -236.4189643151   0.000000000000 0.04208520  0.00184137  0.1752815 0.7000
  1   -236.5371351529  -0.118170837875 0.02592052  0.00131341  0.0911959 0.7000
                               ***Turning on DIIS***
  2   -236.5838799381  -0.046744785164 0.03608266  0.00215586  0.0340323 0.0000
  3   -236.6471120824  -0.063232144301 0.01696282  0.00088986  0.0502245 0.0000
  4   -236.6681015041  -0.020989421732 0.00345023  0.00026950  0.0113426 0.0000
  5   -236.6691517739  -0.001050269744 0.00126435  0.00009590  0.0021596 0.0000
  6   -236.6692135560  -0.000061782067 0.00064434  0.00004956  0.0008024 0.0000
  7   -236.6692185912  -0.000005035297 0.00020193  0.00000560  0.0003891 0.0000
  8   -236.6692190446  -0.000000453304 0.00003955  0.00000144  0.0000606 0.0000
  9   -236.6692190635  -0.000000018987 0.00001617  0.00000050  0.0000253 0.0000
 10   -236.6692190660  -0.000000002495 0.00000364  0.00000017  0.0000067 0.0000
 11   -236.6692190663  -0.000000000315 0.00000092  0.00000005  0.0000016 0.0000
 12   -236.6692190664  -0.000000000031 0.00000046  0.00000001  0.0000007 0.0000
 13   -236.6692190664   0.000000000022 0.00000011  0.00000000  0.0000002 0.0000
                 **** Energy Check signals convergence ****

 Fermi smearing  (ALPHA): E(HOMO(Eh)) = -0.296035 MUE = -0.122721 gap=   9.432 eV
 Fermi smearing   (BETA): E(HOMO(Eh)) = -0.296035 MUE = -0.122721 gap=   9.432 eV

N_FOD(alpha) =  0.000000
 N_FOD(beta) =  0.000000
       N_FOD =  0.000000

               *****************************************************
               *                     SUCCESS                       *
               *           SCF CONVERGED AFTER  14 CYCLES          *
               *****************************************************

Setting up the final grid:

General Integration Accuracy     IntAcc      ...  4.670
Radial Grid Type                 RadialGrid  ... Gauss-Chebyshev
Angular Grid (max. acc.)         AngularGrid ... Lebedev-302
Angular grid pruning method      GridPruning ... 3 (G Style)
Weight generation scheme         WeightScheme... Becke
Basis function cutoff            BFCut       ...    1.0000e-12
Integration weight cutoff        WCut        ...    1.0000e-14
Grids for H and He will be reduced by one unit

# of grid points (after initial pruning)     ...  84788 (   0.0 sec)
# of grid points (after weights+screening)   ...  76480 (   0.2 sec)
nearest neighbour list constructed           ...    0.0 sec
Grid point re-assignment to atoms done       ...    0.0 sec
Grid point division into batches done        ...    0.2 sec
Reduced shell lists constructed in    0.6 sec

Total number of grid points                  ...    76480
Total number of batches                      ...     1207
Average number of points per batch           ...       63
Average number of grid points per atom       ...     3824
Average number of shells per batch           ...    47.51 (74.24%)
Average number of basis functions per batch  ...    81.75 (72.99%)
Average number of large shells per batch     ...    38.50 (81.03%)
Average number of large basis fcns per batch ...    66.10 (80.85%)
Maximum spatial batch extension              ...  20.26, 17.56, 18.39 au
Average spatial batch extension              ...   2.30,  2.35,  2.47 au

Final grid set up in    1.5 sec
Final integration                            ... done (   9.2 sec)
Change in XC energy                          ...     0.000921087
Integrated number of electrons               ...    50.000228385
Previous integrated no of electrons          ...    50.009024210

----------------
TOTAL SCF ENERGY
----------------

Total Energy       :         -236.66829798 Eh           -6440.07179 eV

Components:
Nuclear Repulsion  :          251.88300949 Eh            6854.08514 eV
Electronic Energy  :         -488.55130747 Eh          -13294.15694 eV
One Electron Energy:         -815.54944845 Eh          -22192.22872 eV
Two Electron Energy:          326.99814098 Eh            8898.07179 eV

Virial components:
Potential Energy   :         -470.96992983 Eh          -12815.74333 eV
Kinetic Energy     :          234.30163185 Eh            6375.67154 eV
Virial Ratio       :            2.01010094


DFT components:
N(Alpha)           :       25.000114192503 electrons
N(Beta)            :       25.000114192503 electrons
N(Total)           :       50.000228385006 electrons
E(X)               :      -28.528082264946 Eh       
E(C)               :       -1.872863291072 Eh       
E(XC)              :      -30.400945556017 Eh       
DFET-embed. en.    :        0.000000000000 Eh       

---------------
SCF CONVERGENCE
---------------

  Last Energy change         ...   -8.0149e-12  Tolerance :   1.0000e-09
  Last MAX-Density change    ...    2.7510e-08  Tolerance :   1.0000e-08
  Last RMS-Density change    ...    1.0589e-09  Tolerance :   1.0000e-09
  Last DIIS Error            ...    5.4338e-08  Tolerance :   1.0000e-08

             **** THE GBW FILE WAS UPDATED (orca9.gbw) ****
             **** DENSITY FILE WAS UPDATED (orca9.scfp) ****
             **** ENERGY FILE WAS UPDATED (orca9.en.tmp) ****
             **** THE GBW FILE WAS UPDATED (orca9.gbw) ****
             **** DENSITY FILE WAS UPDATED (orca9.scfp) ****
----------------
ORBITAL ENERGIES
----------------
                 SPIN UP ORBITALS
  NO   OCC          E(Eh)            E(eV) 
   0   1.0000     -10.167826      -276.6806 
   1   1.0000     -10.165891      -276.6280 
   2   1.0000     -10.164319      -276.5852 
   3   1.0000     -10.163400      -276.5602 
   4   1.0000     -10.162770      -276.5430 
   5   1.0000     -10.160135      -276.4713 
   6   1.0000      -0.806937       -21.9579 
   7   1.0000      -0.760212       -20.6864 
   8   1.0000      -0.695020       -18.9125 
   9   1.0000      -0.634686       -17.2707 
  10   1.0000      -0.573995       -15.6192 
  11   1.0000      -0.542692       -14.7674 
  12   1.0000      -0.481728       -13.1085 
  13   1.0000      -0.445948       -12.1348 
  14   1.0000      -0.444712       -12.1012 
  15   1.0000      -0.417333       -11.3562 
  16   1.0000      -0.398155       -10.8343 
  17   1.0000      -0.389044       -10.5864 
  18   1.0000      -0.368729       -10.0336 
  19   1.0000      -0.356954        -9.7132 
  20   1.0000      -0.331331        -9.0160 
  21   1.0000      -0.321861        -8.7583 
  22   1.0000      -0.315113        -8.5747 
  23   1.0000      -0.309409        -8.4195 
  24   1.0000      -0.296035        -8.0555 
  25   0.0000       0.050594         1.3767 
  26   0.0000       0.070255         1.9117 
  27   0.0000       0.080532         2.1914 
  28   0.0000       0.083588         2.2746 
  29   0.0000       0.101673         2.7667 
  30   0.0000       0.113258         3.0819 
  31   0.0000       0.122415         3.3311 
  32   0.0000       0.126652         3.4464 
  33   0.0000       0.152011         4.1364 
  34   0.0000       0.156737         4.2650 
  35   0.0000       0.169495         4.6122 
  36   0.0000       0.183409         4.9908 
  37   0.0000       0.195144         5.3101 
  38   0.0000       0.202333         5.5058 
  39   0.0000       0.222851         6.0641 
  40   0.0000       0.252034         6.8582 
  41   0.0000       0.262366         7.1394 
  42   0.0000       0.285298         7.7634 
  43   0.0000       0.305016         8.2999 
  44   0.0000       0.413629        11.2554 
  45   0.0000       0.433768        11.8034 
  46   0.0000       0.440946        11.9988 
  47   0.0000       0.446235        12.1427 
  48   0.0000       0.482232        13.1222 
  49   0.0000       0.496806        13.5188 
  50   0.0000       0.532010        14.4767 
  51   0.0000       0.548359        14.9216 
  52   0.0000       0.577271        15.7083 
  53   0.0000       0.595552        16.2058 
  54   0.0000       0.629104        17.1188 
  55   0.0000       0.644891        17.5484 
  56   0.0000       0.656941        17.8763 
  57   0.0000       0.664214        18.0742 
  58   0.0000       0.677151        18.4262 
  59   0.0000       0.681315        18.5395 
  60   0.0000       0.689046        18.7499 
  61   0.0000       0.692081        18.8325 
  62   0.0000       0.702112        19.1054 
  63   0.0000       0.705861        19.2074 
  64   0.0000       0.712853        19.3977 
  65   0.0000       0.713646        19.4193 
  66   0.0000       0.719653        19.5828 
  67   0.0000       0.722929        19.6719 
  68   0.0000       0.728466        19.8226 
  69   0.0000       0.734824        19.9956 
  70   0.0000       0.741634        20.1809 
  71   0.0000       0.747683        20.3455 
  72   0.0000       0.759721        20.6730 
  73   0.0000       0.768479        20.9114 
  74   0.0000       0.785050        21.3623 
  75   0.0000       0.835280        22.7291 
  76   0.0000       0.903403        24.5828 
  77   0.0000       0.968441        26.3526 
  78   0.0000       0.980652        26.6849 
  79   0.0000       1.053287        28.6614 
  80   0.0000       1.111777        30.2530 
  81   0.0000       1.172317        31.9004 
  82   0.0000       1.397989        38.0412 
  83   0.0000       1.407951        38.3123 
  84   0.0000       1.556577        42.3566 
  85   0.0000       1.639519        44.6136 
  86   0.0000       1.732370        47.1402 
  87   0.0000       1.773823        48.2682 
  88   0.0000       1.845878        50.2289 
  89   0.0000       1.885135        51.2971 
  90   0.0000       1.918250        52.1982 
  91   0.0000       1.930696        52.5369 
  92   0.0000       1.958079        53.2820 
  93   0.0000       1.975011        53.7428 
  94   0.0000       1.994737        54.2796 
  95   0.0000       2.023323        55.0574 
  96   0.0000       2.058880        56.0250 
  97   0.0000       2.094460        56.9932 
  98   0.0000       2.137329        58.1597 
  99   0.0000       2.146506        58.4094 
 100   0.0000       2.195651        59.7467 
 101   0.0000       2.259018        61.4710 
 102   0.0000       2.275780        61.9271 
 103   0.0000       2.309218        62.8370 
 104   0.0000       2.351643        63.9914 
 105   0.0000       2.406322        65.4793 
 106   0.0000       2.417124        65.7733 
 107   0.0000       2.536126        69.0115 
 108   0.0000       2.591456        70.5171 
 109   0.0000       2.639055        71.8124 
 110   0.0000       2.757529        75.0362 
 111   0.0000       2.815822        76.6224 

                 SPIN DOWN ORBITALS
  NO   OCC          E(Eh)            E(eV) 
   0   1.0000     -10.167826      -276.6806 
   1   1.0000     -10.165891      -276.6280 
   2   1.0000     -10.164319      -276.5852 
   3   1.0000     -10.163400      -276.5602 
   4   1.0000     -10.162770      -276.5430 
   5   1.0000     -10.160135      -276.4713 
   6   1.0000      -0.806937       -21.9579 
   7   1.0000      -0.760212       -20.6864 
   8   1.0000      -0.695020       -18.9125 
   9   1.0000      -0.634686       -17.2707 
  10   1.0000      -0.573995       -15.6192 
  11   1.0000      -0.542692       -14.7674 
  12   1.0000      -0.481728       -13.1085 
  13   1.0000      -0.445948       -12.1348 
  14   1.0000      -0.444712       -12.1012 
  15   1.0000      -0.417333       -11.3562 
  16   1.0000      -0.398155       -10.8343 
  17   1.0000      -0.389044       -10.5864 
  18   1.0000      -0.368729       -10.0336 
  19   1.0000      -0.356954        -9.7132 
  20   1.0000      -0.331331        -9.0160 
  21   1.0000      -0.321861        -8.7583 
  22   1.0000      -0.315113        -8.5747 
  23   1.0000      -0.309409        -8.4195 
  24   1.0000      -0.296035        -8.0555 
  25   0.0000       0.050594         1.3767 
  26   0.0000       0.070255         1.9117 
  27   0.0000       0.080532         2.1914 
  28   0.0000       0.083588         2.2746 
  29   0.0000       0.101673         2.7667 
  30   0.0000       0.113258         3.0819 
  31   0.0000       0.122415         3.3311 
  32   0.0000       0.126652         3.4464 
  33   0.0000       0.152011         4.1364 
  34   0.0000       0.156737         4.2650 
  35   0.0000       0.169495         4.6122 
  36   0.0000       0.183409         4.9908 
  37   0.0000       0.195144         5.3101 
  38   0.0000       0.202333         5.5058 
  39   0.0000       0.222851         6.0641 
  40   0.0000       0.252034         6.8582 
  41   0.0000       0.262366         7.1394 
  42   0.0000       0.285298         7.7634 
  43   0.0000       0.305016         8.2999 
  44   0.0000       0.413629        11.2554 
  45   0.0000       0.433768        11.8034 
  46   0.0000       0.440946        11.9988 
  47   0.0000       0.446235        12.1427 
  48   0.0000       0.482232        13.1222 
  49   0.0000       0.496806        13.5188 
  50   0.0000       0.532010        14.4767 
  51   0.0000       0.548359        14.9216 
  52   0.0000       0.577271        15.7083 
  53   0.0000       0.595552        16.2058 
  54   0.0000       0.629104        17.1188 
  55   0.0000       0.644891        17.5484 
  56   0.0000       0.656941        17.8763 
  57   0.0000       0.664214        18.0742 
  58   0.0000       0.677151        18.4262 
  59   0.0000       0.681315        18.5395 
  60   0.0000       0.689046        18.7499 
  61   0.0000       0.692081        18.8325 
  62   0.0000       0.702112        19.1054 
  63   0.0000       0.705861        19.2074 
  64   0.0000       0.712853        19.3977 
  65   0.0000       0.713646        19.4193 
  66   0.0000       0.719653        19.5828 
  67   0.0000       0.722929        19.6719 
  68   0.0000       0.728466        19.8226 
  69   0.0000       0.734824        19.9956 
  70   0.0000       0.741634        20.1809 
  71   0.0000       0.747683        20.3455 
  72   0.0000       0.759721        20.6730 
  73   0.0000       0.768479        20.9114 
  74   0.0000       0.785050        21.3623 
  75   0.0000       0.835280        22.7291 
  76   0.0000       0.903403        24.5828 
  77   0.0000       0.968441        26.3526 
  78   0.0000       0.980652        26.6849 
  79   0.0000       1.053287        28.6614 
  80   0.0000       1.111777        30.2530 
  81   0.0000       1.172317        31.9004 
  82   0.0000       1.397989        38.0412 
  83   0.0000       1.407951        38.3123 
  84   0.0000       1.556577        42.3566 
  85   0.0000       1.639519        44.6136 
  86   0.0000       1.732370        47.1402 
  87   0.0000       1.773823        48.2682 
  88   0.0000       1.845878        50.2289 
  89   0.0000       1.885135        51.2971 
  90   0.0000       1.918250        52.1982 
  91   0.0000       1.930696        52.5369 
  92   0.0000       1.958079        53.2820 
  93   0.0000       1.975011        53.7428 
  94   0.0000       1.994737        54.2796 
  95   0.0000       2.023323        55.0574 
  96   0.0000       2.058880        56.0250 
  97   0.0000       2.094460        56.9932 
  98   0.0000       2.137329        58.1597 
  99   0.0000       2.146506        58.4094 
 100   0.0000       2.195651        59.7467 
 101   0.0000       2.259018        61.4710 
 102   0.0000       2.275780        61.9271 
 103   0.0000       2.309218        62.8370 
 104   0.0000       2.351643        63.9914 
 105   0.0000       2.406322        65.4793 
 106   0.0000       2.417124        65.7733 
 107   0.0000       2.536126        69.0115 
 108   0.0000       2.591456        70.5171 
 109   0.0000       2.639055        71.8124 
 110   0.0000       2.757529        75.0362 
 111   0.0000       2.815822        76.6224 

                    ********************************
                    * MULLIKEN POPULATION ANALYSIS *
                    ********************************

------------------------------------------
FOD BASED MULLIKEN REDUCED ORBITAL CHARGES
------------------------------------------
  0 C s       :    -0.000000  s :    -0.000000
      pz      :     0.000000  p :     0.000000
      px      :     0.000000
      py      :     0.000000
      dz2     :     0.000000  d :     0.000000
      dxz     :     0.000000
      dyz     :     0.000000
      dx2y2   :     0.000000
      dxy     :     0.000000
  1 C s       :    -0.000000  s :    -0.000000
      pz      :     0.000000  p :     0.000000
      px      :     0.000000
      py      :     0.000000
      dz2     :     0.000000  d :     0.000000
      dxz     :     0.000000
      dyz     :     0.000000
      dx2y2   :     0.000000
      dxy     :     0.000000
  2 C s       :    -0.000000  s :    -0.000000
      pz      :     0.000000  p :     0.000000
      px      :     0.000000
      py      :     0.000000
      dz2     :     0.000000  d :     0.000000
      dxz     :     0.000000
      dyz     :     0.000000
      dx2y2   :     0.000000
      dxy     :     0.000000
  3 C s       :    -0.000000  s :    -0.000000
      pz      :     0.000000  p :     0.000000
      px      :     0.000000
      py      :     0.000000
      dz2     :     0.000000  d :     0.000000
      dxz     :     0.000000
      dyz     :     0.000000
      dx2y2   :     0.000000
      dxy     :     0.000000
  4 C s       :    -0.000000  s :    -0.000000
      pz      :     0.000000  p :     0.000000
      px      :     0.000000
      py      :     0.000000
      dz2     :     0.000000  d :     0.000000
      dxz     :     0.000000
      dyz     :     0.000000
      dx2y2   :     0.000000
      dxy     :     0.000000
  5 C s       :    -0.000000  s :    -0.000000
      pz      :     0.000000  p :     0.000000
      px      :     0.000000
      py      :     0.000000
      dz2     :     0.000000  d :     0.000000
      dxz     :     0.000000
      dyz     :     0.000000
      dx2y2   :     0.000000
      dxy     :     0.000000
  6 H s       :     0.000000  s :     0.000000
  7 H s       :     0.000000  s :     0.000000
  8 H s       :     0.000000  s :     0.000000
  9 H s       :     0.000000  s :     0.000000
 10 H s       :     0.000000  s :     0.000000
 11 H s       :     0.000000  s :     0.000000
 12 H s       :     0.000000  s :     0.000000
 13 H s       :     0.000000  s :     0.000000
 14 H s       :     0.000000  s :     0.000000
 15 H s       :     0.000000  s :     0.000000
 16 H s       :     0.000000  s :     0.000000
 17 H s       :     0.000000  s :     0.000000
 18 H s       :     0.000000  s :     0.000000
 19 H s       :     0.000000  s :     0.000000


                     *******************************
                     * LOEWDIN POPULATION ANALYSIS *
                     *******************************

-------------------------------------------
LOEWDIN ATOMIC CHARGES AND SPIN POPULATIONS
-------------------------------------------
   0 C :   -0.324483    0.000000
   1 C :   -0.223958    0.000000
   2 C :   -0.214517    0.000000
   3 C :   -0.219283    0.000000
   4 C :   -0.219941    0.000000
   5 C :   -0.324820    0.000000
   6 H :    0.113444    0.000000
   7 H :    0.111655    0.000000
   8 H :    0.112573    0.000000
   9 H :    0.108101    0.000000
  10 H :    0.105807    0.000000
  11 H :    0.104754    0.000000
  12 H :    0.104284    0.000000
  13 H :    0.108938    0.000000
  14 H :    0.110846    0.000000
  15 H :    0.104780    0.000000
  16 H :    0.107417    0.000000
  17 H :    0.112167    0.000000
  18 H :    0.111457    0.000000
  19 H :    0.110776    0.000000

----------------------------------------------------
LOEWDIN REDUCED ORBITAL CHARGES AND SPIN POPULATIONS
----------------------------------------------------
CHARGE
  0 C s       :     2.944059  s :     2.944059
      pz      :     1.094988  p :     3.304452
      px      :     1.102529
      py      :     1.106935
      dz2     :     0.014098  d :     0.075971
      dxz     :     0.022279
      dyz     :     0.013268
      dx2y2   :     0.006144
      dxy     :     0.020182
  1 C s       :     2.894058  s :     2.894058
      pz      :     1.076772  p :     3.231067
      px      :     1.068871
      py      :     1.085424
      dz2     :     0.019919  d :     0.098832
      dxz     :     0.028892
      dyz     :     0.011289
      dx2y2   :     0.027375
      dxy     :     0.011357
  2 C s       :     2.899928  s :     2.899928
      pz      :     1.069589  p :     3.216983
      px      :     1.060530
      py      :     1.086864
      dz2     :     0.010564  d :     0.097606
      dxz     :     0.024597
      dyz     :     0.026656
      dx2y2   :     0.022137
      dxy     :     0.013651
  3 C s       :     2.909184  s :     2.909184
      pz      :     1.080860  p :     3.216311
      px      :     1.052863
      py      :     1.082588
      dz2     :     0.015200  d :     0.093789
      dxz     :     0.022951
      dyz     :     0.021345
      dx2y2   :     0.025958
      dxy     :     0.008335
  4 C s       :     2.907480  s :     2.907480
      pz      :     1.079065  p :     3.217906
      px      :     1.050871
      py      :     1.087969
      dz2     :     0.011971  d :     0.094555
      dxz     :     0.023441
      dyz     :     0.023558
      dx2y2   :     0.026805
      dxy     :     0.008780
  5 C s       :     2.947547  s :     2.947547
      pz      :     1.097638  p :     3.302668
      px      :     1.088649
      py      :     1.116381
      dz2     :     0.022533  d :     0.074605
      dxz     :     0.016469
      dyz     :     0.005949
      dx2y2   :     0.005792
      dxy     :     0.023862
  6 H s       :     0.886556  s :     0.886556
  7 H s       :     0.888345  s :     0.888345
  8 H s       :     0.887427  s :     0.887427
  9 H s       :     0.891899  s :     0.891899
 10 H s       :     0.894193  s :     0.894193
 11 H s       :     0.895246  s :     0.895246
 12 H s       :     0.895716  s :     0.895716
 13 H s       :     0.891062  s :     0.891062
 14 H s       :     0.889154  s :     0.889154
 15 H s       :     0.895220  s :     0.895220
 16 H s       :     0.892583  s :     0.892583
 17 H s       :     0.887833  s :     0.887833
 18 H s       :     0.888543  s :     0.888543
 19 H s       :     0.889224  s :     0.889224

SPIN
  0 C s       :     0.000000  s :     0.000000
      pz      :     0.000000  p :     0.000000
      px      :     0.000000
      py      :     0.000000
      dz2     :     0.000000  d :     0.000000
      dxz     :     0.000000
      dyz     :     0.000000
      dx2y2   :     0.000000
      dxy     :     0.000000
  1 C s       :     0.000000  s :     0.000000
      pz      :     0.000000  p :     0.000000
      px      :     0.000000
      py      :     0.000000
      dz2     :     0.000000  d :     0.000000
      dxz     :     0.000000
      dyz     :     0.000000
      dx2y2   :     0.000000
      dxy     :     0.000000
  2 C s       :     0.000000  s :     0.000000
      pz      :     0.000000  p :     0.000000
      px      :     0.000000
      py      :     0.000000
      dz2     :     0.000000  d :     0.000000
      dxz     :     0.000000
      dyz     :     0.000000
      dx2y2   :     0.000000
      dxy     :     0.000000
  3 C s       :     0.000000  s :     0.000000
      pz      :     0.000000  p :     0.000000
      px      :     0.000000
      py      :     0.000000
      dz2     :     0.000000  d :     0.000000
      dxz     :     0.000000
      dyz     :     0.000000
      dx2y2   :     0.000000
      dxy     :     0.000000
  4 C s       :     0.000000  s :     0.000000
      pz      :     0.000000  p :     0.000000
      px      :     0.000000
      py      :     0.000000
      dz2     :     0.000000  d :     0.000000
      dxz     :     0.000000
      dyz     :     0.000000
      dx2y2   :     0.000000
      dxy     :     0.000000
  5 C s       :     0.000000  s :     0.000000
      pz      :     0.000000  p :     0.000000
      px      :     0.000000
      py      :     0.000000
      dz2     :     0.000000  d :     0.000000
      dxz     :     0.000000
      dyz     :     0.000000
      dx2y2   :     0.000000
      dxy     :     0.000000
  6 H s       :     0.000000  s :     0.000000
  7 H s       :     0.000000  s :     0.000000
  8 H s       :     0.000000  s :     0.000000
  9 H s       :     0.000000  s :     0.000000
 10 H s       :     0.000000  s :     0.000000
 11 H s       :     0.000000  s :     0.000000
 12 H s       :     0.000000  s :     0.000000
 13 H s       :     0.000000  s :     0.000000
 14 H s       :     0.000000  s :     0.000000
 15 H s       :     0.000000  s :     0.000000
 16 H s       :     0.000000  s :     0.000000
 17 H s       :     0.000000  s :     0.000000
 18 H s       :     0.000000  s :     0.000000
 19 H s       :     0.000000  s :     0.000000


                      *****************************
                      * MAYER POPULATION ANALYSIS *
                      *****************************

  NA   - Mulliken gross atomic population
  ZA   - Total nuclear charge
  QA   - Mulliken gross atomic charge
  VA   - Mayer's total valence
  BVA  - Mayer's bonded valence
  FA   - Mayer's free valence

  ATOM       NA         ZA         QA         VA         BVA        FA
  0 C      6.2620     6.0000    -0.2620     4.0078     4.0078    -0.0000
  1 C      6.1429     6.0000    -0.1429     4.1564     4.1564     0.0000
  2 C      6.1453     6.0000    -0.1453     4.1078     4.1078     0.0000
  3 C      6.1843     6.0000    -0.1843     4.1328     4.1328     0.0000
  4 C      6.1783     6.0000    -0.1783     4.1450     4.1450     0.0000
  5 C      6.2282     6.0000    -0.2282     3.9796     3.9796     0.0000
  6 H      0.8941     1.0000     0.1059     0.9687     0.9687     0.0000
  7 H      0.9083     1.0000     0.0917     0.9540     0.9540     0.0000
  8 H      0.9126     1.0000     0.0874     0.9528     0.9528     0.0000
  9 H      0.9336     1.0000     0.0664     0.9447     0.9447     0.0000
 10 H      0.9271     1.0000     0.0729     0.9473     0.9473     0.0000
 11 H      0.9321     1.0000     0.0679     0.9485     0.9485     0.0000
 12 H      0.9305     1.0000     0.0695     0.9563     0.9563     0.0000
 13 H      0.9101     1.0000     0.0899     0.9490     0.9490     0.0000
 14 H      0.9262     1.0000     0.0738     0.9434     0.9434     0.0000
 15 H      0.9283     1.0000     0.0717     0.9549     0.9549     0.0000
 16 H      0.9204     1.0000     0.0796     0.9477     0.9477     0.0000
 17 H      0.9086     1.0000     0.0914     0.9541     0.9541     0.0000
 18 H      0.9177     1.0000     0.0823     0.9542     0.9542     0.0000
 19 H      0.9094     1.0000     0.0906     0.9643     0.9643     0.0000

  Mayer bond orders larger than 0.100000
B(  0-C ,  1-C ) :   1.1440 B(  0-C ,  6-H ) :   0.9460 B(  0-C ,  7-H ) :   0.9603 
B(  0-C ,  8-H ) :   0.9594 B(  1-C ,  2-C ) :   1.1230 B(  1-C ,  9-H ) :   0.9329 
B(  1-C , 10-H ) :   0.9379 B(  2-C ,  3-C ) :   1.1197 B(  2-C , 11-H ) :   0.9227 
B(  2-C , 12-H ) :   0.9332 B(  3-C ,  4-C ) :   1.1292 B(  3-C , 13-H ) :   0.9307 
B(  3-C , 14-H ) :   0.9175 B(  4-C ,  5-C ) :   1.1099 B(  4-C , 15-H ) :   0.9392 
B(  4-C , 16-H ) :   0.9411 B(  5-C , 17-H ) :   0.9618 B(  5-C , 18-H ) :   0.9617 
B(  5-C , 19-H ) :   0.9617 

-------
TIMINGS
-------

Total SCF time: 0 days 0 hours 6 min 35 sec 

Total time                  ....     395.300 sec
Sum of individual times     ....     316.199 sec  ( 80.0%)

Fock matrix formation       ....     272.418 sec  ( 68.9%)
  XC integration            ....     123.922 sec  ( 45.5% of F)
    Basis function eval.    ....       1.597 sec  (  1.3% of XC)
    Density eval.           ....       1.309 sec  (  1.1% of XC)
    XC-Functional eval.     ....       0.365 sec  (  0.3% of XC)
    XC-Potential eval.      ....       1.777 sec  (  1.4% of XC)
Diagonalization             ....       0.093 sec  (  0.0%)
Density matrix formation    ....      25.015 sec  (  6.3%)
Population analysis         ....       5.426 sec  (  1.4%)
Initial guess               ....       0.326 sec  (  0.1%)
Orbital Transformation      ....       0.000 sec  (  0.0%)
Orbital Orthonormalization  ....       0.000 sec  (  0.0%)
DIIS solution               ....      10.623 sec  (  2.7%)
Grid generation             ....       2.298 sec  (  0.6%)


-------------------------------------------------------------------------------
                          DFT DISPERSION CORRECTION                            
                                                                               
                              DFTD3 V3.1  Rev 1                                
                          USING Becke-Johnson damping                          
-------------------------------------------------------------------------------
The B3LYP functional is recognized
Active option DFTDOPT                   ...         4   

molecular C6(AA) [au] = 2517.754713 


            DFT-D V3
 parameters
 s6 scaling factor         :     1.0000 
 a1 scaling factor         :     0.3981 
 s8 scaling factor         :     1.9889 
 a2 scaling factor         :     4.4211 
 ad hoc parameters k1-k3   :    16.0000     1.3333    -4.0000 

 Edisp/kcal,au: -15.853584251505  -0.025264291960 
 E6   /kcal   :  -7.967735227 
 E8   /kcal   :  -7.885849024 
 % E8         :  49.741742304 

-------------------------   ----------------
Dispersion correction           -0.025264292
-------------------------   ----------------


-------------------------   --------------------
FINAL SINGLE POINT ENERGY      -236.693562271021
-------------------------   --------------------

------------------------------------------------------------------------------
                         ORCA SCF GRADIENT CALCULATION
------------------------------------------------------------------------------

Gradient of the Kohn-Sham DFT energy:
Kohn-Sham wavefunction type      ... UKS
Hartree-Fock exchange scaling    ...    0.200
Number of operators              ...    2
Number of atoms                  ...   20
Basis set dimensions             ...  112
Integral neglect threshold       ... 1.0e-12
Integral primitive cutoff        ... 1.0e-14

Nuclear repulsion gradient       ... done
One Electron Gradient            ... done
Pre-screening matrix             ... done
Starting the two electron gradient:
Two electron gradient done
Exchange-correlation gradient    ... done
Dispersion correction            ... done

------------------
CARTESIAN GRADIENT
------------------

   1   C   :   -0.017553569   -0.009319457   -0.015127273
   2   C   :   -0.024814870   -0.004529700    0.026053058
   3   C   :    0.008109854    0.000870511    0.027246205
   4   C   :    0.021155927    0.015362950    0.015817948
   5   C   :   -0.013050108   -0.000671298    0.001670602
   6   C   :    0.033644253    0.007372940   -0.000101508
   7   H   :   -0.003680807    0.003605156   -0.006709508
   8   H   :    0.003003986    0.000717970   -0.005224316
   9   H   :   -0.000190707    0.011600341   -0.003550341
  10   H   :    0.003576147   -0.010381371   -0.002830150
  11   H   :   -0.001208224    0.000866492   -0.003735438
  12   H   :    0.000107884   -0.004311750   -0.006352806
  13   H   :   -0.003659458    0.006373950   -0.002493204
  14   H   :   -0.002239052    0.001822331   -0.003055346
  15   H   :   -0.005622352   -0.007611216   -0.013682574
  16   H   :    0.007825717    0.002008580    0.004332051
  17   H   :    0.001577451   -0.011359722   -0.001767155
  18   H   :   -0.004666478    0.003810426   -0.002812618
  19   H   :   -0.000108465   -0.003436506   -0.006129764
  20   H   :   -0.002207128   -0.002790625   -0.001547862

Difference to translation invariance:
           :   -0.0000000000   -0.0000000000    0.0000000000

Norm of the cartesian gradient     ...    0.0786302968
RMS gradient                       ...    0.0101511277
MAX gradient                       ...    0.0336442525

-------
TIMINGS
-------

Total SCF gradient time            ...       11.056 sec

One electron gradient       ....       0.087 sec  (  0.8%)
Prescreening matrices       ....       0.047 sec  (  0.4%)
Two electron gradient       ....       4.841 sec  ( 43.8%)
XC gradient                 ....       5.688 sec  ( 51.4%)
------------------------------------------------------------------------------
                         ORCA GEOMETRY RELAXATION STEP
------------------------------------------------------------------------------

Reading the OPT-File                    .... done
Getting information on internals        .... done
Copying old internal coords+grads       .... done
Making the new internal coordinates     .... (new redundants).... done
Validating the new internal coordinates .... (new redundants).... done
Calculating the B-matrix                .... done
Calculating the G,G- and P matrices     .... done
Transforming gradient to internals      .... done
Projecting the internal gradient        .... done
Number of atoms                         ....  20
Number of internal coordinates          .... 100
Current Energy                          ....  -236.693562271 Eh
Current gradient norm                   ....     0.078630297 Eh/bohr
Maximum allowed component of the step   ....  0.300
Current trust radius                    ....  0.300
Evaluating the initial hessian          ....  (Almloef) done
Projecting the Hessian                  .... done
Forming the augmented Hessian           .... done
Diagonalizing the augmented Hessian     .... done
Last element of RFO vector              ....  0.935003197
Lowest eigenvalues of augmented Hessian:
 -0.024623736  0.011489776  0.013649103  0.013714737  0.014361503
Length of the computed step             ....  0.379292053
Warning: the length of the step is outside the trust region - taking restricted step instead
The input lambda is                     ....    -0.024624
   iter:   1  x=   -0.038030  g=    4.017678 f(x)=     0.053862
   iter:   2  x=   -0.046282  g=    1.968086 f(x)=     0.016241
   iter:   3  x=   -0.048022  g=    1.418247 f(x)=     0.002467
   iter:   4  x=   -0.048078  g=    1.333759 f(x)=     0.000075
   iter:   5  x=   -0.048078  g=    1.331175 f(x)=     0.000000
   iter:   6  x=   -0.048078  g=    1.331173 f(x)=     0.000000
   iter:   7  x=   -0.048078  g=    1.331173 f(x)=    -0.000000
The output lambda is                    ....    -0.048078 (7 iterations)
The final length of the internal step   ....  0.300000000
Converting the step to cartesian space:
 Initial RMS(Int)=    0.0300000000
Transforming coordinates:
 Iter   0:  RMS(Cart)=    0.1105466744 RMS(Int)=    0.0300386347
 Iter   1:  RMS(Cart)=    0.0017470650 RMS(Int)=    0.0008830278
 Iter   2:  RMS(Cart)=    0.0000894871 RMS(Int)=    0.0000417882
 Iter   3:  RMS(Cart)=    0.0000045941 RMS(Int)=    0.0000024114
 Iter   4:  RMS(Cart)=    0.0000002242 RMS(Int)=    0.0000001375
 Iter   5:  RMS(Cart)=    0.0000000136 RMS(Int)=    0.0000000072
done
Storing new coordinates                 .... done

                                .--------------------.
          ----------------------|Geometry convergence|-------------------------
          Item                value                   Tolerance       Converged
          ---------------------------------------------------------------------
          RMS gradient        0.0088776082            0.0001000000      NO
          MAX gradient        0.0424218773            0.0003000000      NO
          RMS step            0.0300000000            0.0020000000      NO
          MAX step            0.0876341490            0.0040000000      NO
          ........................................................
          Max(Bonds)      0.0464      Max(Angles)    4.63
          Max(Dihed)        4.31      Max(Improp)    0.00
          ---------------------------------------------------------------------

The optimization has not yet converged - more geometry cycles are needed


    ---------------------------------------------------------------------------
                         Redundant Internal Coordinates
                            (Angstroem and degrees)

        Definition                    Value    dE/dq     Step     New-Value
    ----------------------------------------------------------------------------
     1. B(C   1,C   0)                1.4954 -0.035156  0.0394    1.5348   
     2. B(C   2,C   1)                1.4879 -0.042422  0.0464    1.5343   
     3. B(C   3,C   2)                1.5030 -0.029660  0.0341    1.5371   
     4. B(C   4,C   3)                1.5266 -0.019322  0.0240    1.5506   
     5. B(C   5,C   4)                1.5009 -0.027024  0.0308    1.5318   
     6. B(H   6,C   0)                1.0966 -0.002177  0.0029    1.0995   
     7. B(H   7,C   0)                1.1069  0.001969 -0.0027    1.1042   
     8. B(H   8,C   0)                1.1171  0.006613 -0.0094    1.1077   
     9. B(H   9,C   1)                1.1198  0.006968 -0.0099    1.1099   
    10. B(H  10,C   1)                1.1075  0.000800 -0.0011    1.1064   
    11. B(H  11,C   2)                1.1193  0.007092 -0.0101    1.1092   
    12. B(H  12,C   2)                1.1200  0.007285 -0.0104    1.1096   
    13. B(H  13,C   3)                1.1000 -0.001602  0.0021    1.1021   
    14. B(H  14,C   3)                1.1122  0.004009 -0.0056    1.1067   
    15. B(H  15,C   4)                1.1058  0.000596 -0.0008    1.1050   
    16. B(H  16,C   4)                1.1189  0.008625 -0.0123    1.1066   
    17. B(H  17,C   5)                1.1148  0.005766 -0.0081    1.1067   
    18. B(H  18,C   5)                1.1143  0.004297 -0.0060    1.1083   
    19. B(H  19,C   5)                1.1017 -0.001603  0.0022    1.1038   
    20. A(H   7,C   0,H   8)          108.94  0.007430   -1.17    107.77   
    21. A(C   1,C   0,H   7)          111.36 -0.002015    0.23    111.59   
    22. A(C   1,C   0,H   6)          110.41 -0.008794    1.38    111.79   
    23. A(H   6,C   0,H   7)          111.09  0.008053   -1.62    109.48   
    24. A(H   6,C   0,H   8)          108.33  0.008142   -0.98    107.35   
    25. A(C   1,C   0,H   8)          106.54 -0.013124    2.24    108.78   
    26. A(C   2,C   1,H  10)          108.42  0.001556   -0.04    108.38   
    27. A(C   0,C   1,H  10)          111.75  0.005441   -0.89    110.87   
    28. A(C   2,C   1,H   9)          107.57  0.002870   -0.17    107.40   
    29. A(C   0,C   1,H   9)          106.80  0.001864   -0.10    106.70   
    30. A(H   9,C   1,H  10)          106.48  0.000296   -0.87    105.61   
    31. A(C   0,C   1,C   2)          115.37 -0.011284    1.87    117.24   
    32. A(H  11,C   2,H  12)          104.16 -0.002012   -0.11    104.05   
    33. A(C   1,C   2,C   3)          115.14 -0.013389    2.02    117.17   
    34. A(C   3,C   2,H  11)          109.68  0.003447   -0.55    109.12   
    35. A(C   1,C   2,H  11)          111.72  0.006633   -1.16    110.56   
    36. A(C   1,C   2,H  12)          107.17  0.001628    0.11    107.28   
    37. A(C   3,C   2,H  12)          108.30  0.004732   -0.49    107.82   
    38. A(C   2,C   3,C   4)          106.41 -0.026314    4.63    111.04   
    39. A(H  13,C   3,H  14)          113.34  0.001510   -2.32    111.02   
    40. A(C   4,C   3,H  14)          104.89  0.002783    0.62    105.51   
    41. A(C   2,C   3,H  14)          108.21  0.002843    0.14    108.35   
    42. A(C   4,C   3,H  13)          109.22  0.007750   -0.87    108.35   
    43. A(C   2,C   3,H  13)          114.15  0.009041   -1.58    112.57   
    44. A(H  15,C   4,H  16)          109.81  0.002619   -1.44    108.37   
    45. A(C   5,C   4,H  16)          110.99  0.001374   -0.41    110.58   
    46. A(C   3,C   4,H  16)          106.41  0.000048    0.34    106.75   
    47. A(C   5,C   4,H  15)          112.18  0.004311   -0.83    111.36   
    48. A(C   3,C   4,H  15)          104.68 -0.004056    1.30    105.98   
    49. A(C   3,C   4,C   5)          112.44 -0.004695    1.14    113.58   
    50. A(C   4,C   5,H  17)          112.76 -0.000851    0.03    112.79   
    51. A(H  18,C   5,H  19)          106.25  0.001727   -0.08    106.17   
    52. A(H  17,C   5,H  19)          109.05  0.000974   -0.73    108.32   
    53. A(C   4,C   5,H  19)          114.25  0.004804   -0.94    113.31   
    54. A(H  17,C   5,H  18)          105.26  0.002420    0.09    105.35   
    55. A(C   4,C   5,H  18)          108.67 -0.009246    1.76    110.43   
    56. D(H   9,C   1,C   0,H   8)     91.38  0.004076   -2.16     89.22   
    57. D(H  10,C   1,C   0,H   7)   -143.37 -0.000152   -0.66   -144.03   
    58. D(H   9,C   1,C   0,H   7)    -27.29  0.004198   -2.24    -29.53   
    59. D(H  10,C   1,C   0,H   8)    -24.70 -0.000275   -0.58    -25.28   
    60. D(H   9,C   1,C   0,H   6)   -151.20  0.001603   -1.31   -152.51   
    61. D(C   2,C   1,C   0,H   8)   -149.14  0.002104   -1.29   -150.44   
    62. D(C   2,C   1,C   0,H   7)     92.19  0.002227   -1.37     90.82   
    63. D(C   2,C   1,C   0,H   6)    -31.72 -0.000369   -0.45    -32.17   
    64. D(H  10,C   1,C   0,H   6)     92.72 -0.002748    0.26     92.99   
    65. D(H  11,C   2,C   1,H   9)     31.22 -0.003322    2.69     33.91   
    66. D(C   3,C   2,C   1,H  10)    -88.03 -0.001339    1.48    -86.56   
    67. D(C   3,C   2,C   1,C   0)     38.13 -0.001310    1.68     39.81   
    68. D(H  11,C   2,C   1,C   0)    -87.84 -0.000693    1.77    -86.07   
    69. D(H  11,C   2,C   1,H  10)    146.00 -0.000722    1.57    147.56   
    70. D(H  12,C   2,C   1,H  10)     32.50 -0.002635    2.23     34.73   
    71. D(H  12,C   2,C   1,H   9)    -82.27 -0.005234    3.35    -78.92   
    72. D(H  12,C   2,C   1,C   0)    158.67 -0.002605    2.43    161.10   
    73. D(C   3,C   2,C   1,H   9)    157.19 -0.003939    2.60    159.79   
    74. D(H  14,C   3,C   2,H  11)     29.40 -0.008122    3.88     33.28   
    75. D(H  14,C   3,C   2,C   1)    -97.61 -0.009398    4.31    -93.30   
    76. D(H  13,C   3,C   2,H  12)    -90.32  0.004908   -0.96    -91.28   
    77. D(H  13,C   3,C   2,H  11)    156.60  0.003008   -0.28    156.32   
    78. D(H  13,C   3,C   2,C   1)     29.59  0.001733    0.15     29.75   
    79. D(C   4,C   3,C   2,H  11)    -82.86 -0.000074    0.89    -81.97   
    80. D(C   4,C   3,C   2,H  12)     30.21  0.001825    0.22     30.43   
    81. D(H  14,C   3,C   2,H  12)    142.48 -0.006223    3.20    145.68   
    82. D(C   4,C   3,C   2,C   1)    150.13 -0.001349    1.33    151.46   
    83. D(H  15,C   4,C   3,C   2)    -56.80 -0.001632    0.36    -56.44   
    84. D(C   5,C   4,C   3,H  14)     66.62  0.005194   -2.53     64.09   
    85. D(C   5,C   4,C   3,H  13)    -55.17 -0.002293    0.31    -54.86   
    86. D(C   5,C   4,C   3,C   2)   -178.84 -0.001595   -0.12   -178.96   
    87. D(H  16,C   4,C   3,H  14)    -55.09  0.006283   -2.94    -58.03   
    88. D(H  16,C   4,C   3,H  13)   -176.88 -0.001204   -0.10   -176.98   
    89. D(H  16,C   4,C   3,C   2)     59.45 -0.000505   -0.53     58.93   
    90. D(H  15,C   4,C   3,H  14)   -171.34  0.005157   -2.05   -173.40   
    91. D(H  15,C   4,C   3,H  13)     66.86 -0.002330    0.79     67.66   
    92. D(H  19,C   5,C   4,H  16)    121.60 -0.005436    2.24    123.83   
    93. D(H  19,C   5,C   4,H  15)   -115.14  0.002120   -0.55   -115.69   
    94. D(H  19,C   5,C   4,C   3)      2.53 -0.003303    1.32      3.86   
    95. D(H  18,C   5,C   4,H  16)      3.16 -0.004209    1.71      4.87   
    96. D(H  18,C   5,C   4,H  15)    126.42  0.003347   -1.07    125.35   
    97. D(H  18,C   5,C   4,C   3)   -115.91 -0.002075    0.80   -115.11   
    98. D(H  17,C   5,C   4,H  16)   -113.15 -0.000820    0.47   -112.68   
    99. D(H  17,C   5,C   4,H  15)     10.11  0.006736   -2.32      7.80   
   100. D(H  17,C   5,C   4,C   3)    127.79  0.001314   -0.44    127.34   
    ----------------------------------------------------------------------------

Time needed for optimization step       :     4.46 sec

         *************************************************************
         *                GEOMETRY OPTIMIZATION CYCLE   2            *
         *************************************************************
---------------------------------
CARTESIAN COORDINATES (ANGSTROEM)
---------------------------------
  C      2.609429   -0.110645    0.772866
  C      2.038328    0.479883   -0.523613
  C      0.649590   -0.002453   -0.962776
  C     -0.405260   -0.199690    0.137681
  C     -1.836027    0.020431   -0.418050
  C     -2.934411   -0.137053    0.637941
  H      1.817102   -0.342216    1.499168
  H      3.206462   -1.018701    0.577266
  H      3.277419    0.638501    1.241534
  H      2.751301    0.219831   -1.333507
  H      2.026441    1.585392   -0.481193
  H      0.731326   -0.934108   -1.559181
  H      0.253821    0.743928   -1.682218
  H     -0.256301    0.479609    0.992655
  H     -0.374330   -1.257461    0.461498
  H     -1.840256    1.035789   -0.853971
  H     -1.976202   -0.710816   -1.236689
  H     -3.617106    0.733038    0.679236
  H     -3.580121   -1.005207    0.397922
  H     -2.541207   -0.317685    1.653431

----------------------------
CARTESIAN COORDINATES (A.U.)
----------------------------
  NO LB      ZA    FRAG     MASS         X           Y           Z
   0 C     6.0000    0    12.011    4.931106   -0.209088    1.460506
   1 C     6.0000    0    12.011    3.851882    0.906848   -0.989485
   2 C     6.0000    0    12.011    1.227547   -0.004635   -1.819383
   3 C     6.0000    0    12.011   -0.765831   -0.377359    0.260179
   4 C     6.0000    0    12.011   -3.469589    0.038608   -0.790001
   5 C     6.0000    0    12.011   -5.545233   -0.258993    1.205534
   6 H     1.0000    0     1.008    3.433826   -0.646694    2.833016
   7 H     1.0000    0     1.008    6.059335   -1.925065    1.090874
   8 H     1.0000    0     1.008    6.193425    1.206592    2.346159
   9 H     1.0000    0     1.008    5.199206    0.415420   -2.519963
  10 H     1.0000    0     1.008    3.829419    2.995956   -0.909324
  11 H     1.0000    0     1.008    1.382006   -1.765209   -2.946425
  12 H     1.0000    0     1.008    0.479653    1.405819   -3.178931
  13 H     1.0000    0     1.008   -0.484338    0.906329    1.875847
  14 H     1.0000    0     1.008   -0.707380   -2.376256    0.872106
  15 H     1.0000    0     1.008   -3.477579    1.957357   -1.613772
  16 H     1.0000    0     1.008   -3.734480   -1.343247   -2.337003
  17 H     1.0000    0     1.008   -6.835340    1.385241    1.283571
  18 H     1.0000    0     1.008   -6.765448   -1.899566    0.751963
  19 H     1.0000    0     1.008   -4.802186   -0.600337    3.124533

--------------------------------
INTERNAL COORDINATES (ANGSTROEM)
--------------------------------
 C      0   0   0     0.000000000000     0.00000000     0.00000000
 C      1   0   0     1.534841359512     0.00000000     0.00000000
 C      2   1   0     1.534309907703   117.23316546     0.00000000
 C      3   2   1     1.537080075912   117.16627517    39.80658633
 C      4   3   2     1.550607888409   111.00343634   151.43583328
 C      5   4   3     1.531785048645   113.57658847   181.05010315
 H      1   2   3     1.099509153566   111.76983942   327.84811593
 H      1   2   3     1.104207202262   111.58964268    90.81657724
 H      1   2   3     1.107736151076   108.75729074   209.55748886
 H      2   1   3     1.109903818944   106.69075396   239.65029283
 H      2   1   3     1.106385856008   110.85811439   125.14564578
 H      3   2   1     1.109216953186   110.56355063   273.93522732
 H      3   2   1     1.109645587175   107.27434399   161.10229192
 H      4   3   2     1.102096727746   112.55418798    29.76042297
 H      4   3   2     1.106658588863   108.23769435   266.70691973
 H      5   4   3     1.104987209426   105.98358763   303.58239621
 H      5   4   3     1.106589130196   106.75088912    58.94003923
 H      6   5   4     1.106723678207   112.78177508   127.33963142
 H      6   5   4     1.108260707044   110.42727323   244.89402198
 H      6   5   4     1.103837646346   113.30377717     3.84911959

---------------------------
INTERNAL COORDINATES (A.U.)
---------------------------
 C      0   0   0     0.000000000000     0.00000000     0.00000000
 C      1   0   0     2.900429828493     0.00000000     0.00000000
 C      2   1   0     2.899425530120   117.23316546     0.00000000
 C      3   2   1     2.904660389380   117.16627517    39.80658633
 C      4   3   2     2.930224250191   111.00343634   151.43583328
 C      5   4   3     2.894654237975   113.57658847   181.05010315
 H      1   2   3     2.077771181979   111.76983942   327.84811593
 H      1   2   3     2.086649207379   111.58964268    90.81657724
[...]
  32   0.0000       0.139328         3.7913 
  33   0.0000       0.152098         4.1388 
  34   0.0000       0.154837         4.2133 
  35   0.0000       0.165150         4.4940 
  36   0.0000       0.168421         4.5830 
  37   0.0000       0.174614         4.7515 
  38   0.0000       0.188250         5.1226 
  39   0.0000       0.212731         5.7887 
  40   0.0000       0.240595         6.5469 
  41   0.0000       0.246752         6.7145 
  42   0.0000       0.261125         7.1056 
  43   0.0000       0.278270         7.5721 
  44   0.0000       0.411290        11.1918 
  45   0.0000       0.425776        11.5860 
  46   0.0000       0.429044        11.6749 
  47   0.0000       0.433141        11.7864 
  48   0.0000       0.439530        11.9602 
  49   0.0000       0.457670        12.4538 
  50   0.0000       0.488331        13.2882 
  51   0.0000       0.513878        13.9833 
  52   0.0000       0.554078        15.0772 
  53   0.0000       0.596989        16.2449 
  54   0.0000       0.624513        16.9938 
  55   0.0000       0.634968        17.2784 
  56   0.0000       0.655553        17.8385 
  57   0.0000       0.662638        18.0313 
  58   0.0000       0.676813        18.4170 
  59   0.0000       0.683731        18.6053 
  60   0.0000       0.685703        18.6589 
  61   0.0000       0.699939        19.0463 
  62   0.0000       0.705587        19.2000 
  63   0.0000       0.709476        19.3058 
  64   0.0000       0.714080        19.4311 
  65   0.0000       0.719891        19.5892 
  66   0.0000       0.723131        19.6774 
  67   0.0000       0.724565        19.7164 
  68   0.0000       0.731549        19.9065 
  69   0.0000       0.738982        20.1087 
  70   0.0000       0.740369        20.1465 
  71   0.0000       0.751592        20.4518 
  72   0.0000       0.758632        20.6434 
  73   0.0000       0.764583        20.8054 
  74   0.0000       0.776996        21.1431 
  75   0.0000       0.916010        24.9259 
  76   0.0000       0.979036        26.6409 
  77   0.0000       1.018765        27.7220 
  78   0.0000       1.042856        28.3776 
  79   0.0000       1.059771        28.8378 
  80   0.0000       1.118992        30.4493 
  81   0.0000       1.149245        31.2725 
  82   0.0000       1.407159        38.2907 
  83   0.0000       1.476031        40.1649 
  84   0.0000       1.517284        41.2874 
  85   0.0000       1.632283        44.4167 
  86   0.0000       1.680083        45.7174 
  87   0.0000       1.750087        47.6223 
  88   0.0000       1.837210        49.9930 
  89   0.0000       1.868437        50.8427 
  90   0.0000       1.881523        51.1988 
  91   0.0000       1.903293        51.7912 
  92   0.0000       1.919116        52.2218 
  93   0.0000       1.949194        53.0403 
  94   0.0000       1.968384        53.5625 
  95   0.0000       1.985727        54.0344 
  96   0.0000       2.017701        54.9044 
  97   0.0000       2.083401        56.6922 
  98   0.0000       2.128378        57.9161 
  99   0.0000       2.158656        58.7400 
 100   0.0000       2.194612        59.7184 
 101   0.0000       2.230468        60.6941 
 102   0.0000       2.265766        61.6546 
 103   0.0000       2.287318        62.2411 
 104   0.0000       2.328956        63.3741 
 105   0.0000       2.353179        64.0333 
 106   0.0000       2.392547        65.1045 
 107   0.0000       2.523586        68.6703 
 108   0.0000       2.554345        69.5073 
 109   0.0000       2.601386        70.7873 
 110   0.0000       2.723974        74.1231 
 111   0.0000       2.767722        75.3135 

                    ********************************
                    * MULLIKEN POPULATION ANALYSIS *
                    ********************************

------------------------------------------
FOD BASED MULLIKEN REDUCED ORBITAL CHARGES
------------------------------------------
  0 C s       :    -0.000000  s :    -0.000000
      pz      :     0.000000  p :     0.000000
      px      :     0.000000
      py      :     0.000000
      dz2     :     0.000000  d :     0.000000
      dxz     :     0.000000
      dyz     :     0.000000
      dx2y2   :     0.000000
      dxy     :     0.000000
  1 C s       :    -0.000000  s :    -0.000000
      pz      :     0.000000  p :     0.000000
      px      :     0.000000
      py      :     0.000000
      dz2     :     0.000000  d :     0.000000
      dxz     :     0.000000
      dyz     :     0.000000
      dx2y2   :     0.000000
      dxy     :     0.000000
  2 C s       :    -0.000000  s :    -0.000000
      pz      :     0.000000  p :     0.000000
      px      :     0.000000
      py      :     0.000000
      dz2     :     0.000000  d :     0.000000
      dxz     :     0.000000
      dyz     :     0.000000
      dx2y2   :     0.000000
      dxy     :     0.000000
  3 C s       :    -0.000000  s :    -0.000000
      pz      :     0.000000  p :     0.000000
      px      :     0.000000
      py      :     0.000000
      dz2     :     0.000000  d :     0.000000
      dxz     :     0.000000
      dyz     :     0.000000
      dx2y2   :     0.000000
      dxy     :     0.000000
  4 C s       :    -0.000000  s :    -0.000000
      pz      :     0.000000  p :     0.000000
      px      :     0.000000
      py      :     0.000000
      dz2     :     0.000000  d :     0.000000
      dxz     :     0.000000
      dyz     :     0.000000
      dx2y2   :     0.000000
      dxy     :     0.000000
  5 C s       :    -0.000000  s :    -0.000000
      pz      :     0.000000  p :     0.000000
      px      :     0.000000
      py      :     0.000000
      dz2     :     0.000000  d :     0.000000
      dxz     :     0.000000
      dyz     :     0.000000
      dx2y2   :     0.000000
      dxy     :     0.000000
  6 H s       :     0.000000  s :     0.000000
  7 H s       :     0.000000  s :     0.000000
  8 H s       :     0.000000  s :     0.000000
  9 H s       :     0.000000  s :     0.000000
 10 H s       :     0.000000  s :     0.000000
 11 H s       :     0.000000  s :     0.000000
 12 H s       :     0.000000  s :     0.000000
 13 H s       :     0.000000  s :     0.000000
 14 H s       :     0.000000  s :     0.000000
 15 H s       :     0.000000  s :     0.000000
 16 H s       :     0.000000  s :     0.000000
 17 H s       :     0.000000  s :     0.000000
 18 H s       :     0.000000  s :     0.000000
 19 H s       :     0.000000  s :     0.000000


                     *******************************
                     * LOEWDIN POPULATION ANALYSIS *
                     *******************************

-------------------------------------------
LOEWDIN ATOMIC CHARGES AND SPIN POPULATIONS
-------------------------------------------
   0 C :   -0.321167    0.000000
   1 C :   -0.217625    0.000000
   2 C :   -0.211007    0.000000
   3 C :   -0.214348    0.000000
   4 C :   -0.216825    0.000000
   5 C :   -0.317925    0.000000
   6 H :    0.108943    0.000000
   7 H :    0.108244    0.000000
   8 H :    0.111214    0.000000
   9 H :    0.108111    0.000000
  10 H :    0.105070    0.000000
  11 H :    0.103998    0.000000
  12 H :    0.106020    0.000000
  13 H :    0.104111    0.000000
  14 H :    0.105504    0.000000
  15 H :    0.105224    0.000000
  16 H :    0.105473    0.000000
  17 H :    0.110258    0.000000
  18 H :    0.108278    0.000000
  19 H :    0.108449    0.000000

----------------------------------------------------
LOEWDIN REDUCED ORBITAL CHARGES AND SPIN POPULATIONS
----------------------------------------------------
CHARGE
  0 C s       :     2.952186  s :     2.952186
      pz      :     1.099760  p :     3.295663
      px      :     1.102323
      py      :     1.093581
      dz2     :     0.011090  d :     0.073318
      dxz     :     0.017639
      dyz     :     0.017037
      dx2y2   :     0.020919
      dxy     :     0.006633
  1 C s       :     2.911196  s :     2.911196
      pz      :     1.078288  p :     3.215921
      px      :     1.059748
      py      :     1.077885
      dz2     :     0.009211  d :     0.090508
      dxz     :     0.025797
      dyz     :     0.021334
      dx2y2   :     0.023366
      dxy     :     0.010801
  2 C s       :     2.913834  s :     2.913834
      pz      :     1.073775  p :     3.207169
      px      :     1.044122
      py      :     1.089272
      dz2     :     0.007656  d :     0.090004
      dxz     :     0.022432
      dyz     :     0.026898
      dx2y2   :     0.023791
      dxy     :     0.009226
  3 C s       :     2.914303  s :     2.914303
      pz      :     1.077880  p :     3.210129
      px      :     1.040655
      py      :     1.091594
      dz2     :     0.007393  d :     0.089915
      dxz     :     0.022058
      dyz     :     0.028361
      dx2y2   :     0.023676
      dxy     :     0.008427
  4 C s       :     2.911939  s :     2.911939
      pz      :     1.076199  p :     3.214164
      px      :     1.045832
      py      :     1.092132
      dz2     :     0.007457  d :     0.090722
      dxz     :     0.022547
      dyz     :     0.028135
      dx2y2   :     0.023918
      dxy     :     0.008665
  5 C s       :     2.952509  s :     2.952509
      pz      :     1.095149  p :     3.292000
      px      :     1.083972
      py      :     1.112878
      dz2     :     0.005684  d :     0.073416
      dxz     :     0.017633
      dyz     :     0.025076
      dx2y2   :     0.020995
      dxy     :     0.004029
  6 H s       :     0.891057  s :     0.891057
  7 H s       :     0.891756  s :     0.891756
  8 H s       :     0.888786  s :     0.888786
  9 H s       :     0.891889  s :     0.891889
 10 H s       :     0.894930  s :     0.894930
 11 H s       :     0.896002  s :     0.896002
 12 H s       :     0.893980  s :     0.893980
 13 H s       :     0.895889  s :     0.895889
 14 H s       :     0.894496  s :     0.894496
 15 H s       :     0.894776  s :     0.894776
 16 H s       :     0.894527  s :     0.894527
 17 H s       :     0.889742  s :     0.889742
 18 H s       :     0.891722  s :     0.891722
 19 H s       :     0.891551  s :     0.891551

SPIN
  0 C s       :     0.000000  s :     0.000000
      pz      :     0.000000  p :     0.000000
      px      :     0.000000
      py      :     0.000000
      dz2     :     0.000000  d :     0.000000
      dxz     :     0.000000
      dyz     :     0.000000
      dx2y2   :     0.000000
      dxy     :     0.000000
  1 C s       :     0.000000  s :     0.000000
      pz      :     0.000000  p :     0.000000
      px      :     0.000000
      py      :     0.000000
      dz2     :     0.000000  d :     0.000000
      dxz     :     0.000000
      dyz     :     0.000000
      dx2y2   :     0.000000
      dxy     :     0.000000
  2 C s       :     0.000000  s :     0.000000
      pz      :     0.000000  p :     0.000000
      px      :     0.000000
      py      :     0.000000
      dz2     :     0.000000  d :     0.000000
      dxz     :     0.000000
      dyz     :     0.000000
      dx2y2   :     0.000000
      dxy     :     0.000000
  3 C s       :     0.000000  s :     0.000000
      pz      :     0.000000  p :     0.000000
      px      :     0.000000
      py      :     0.000000
      dz2     :     0.000000  d :     0.000000
      dxz     :     0.000000
      dyz     :     0.000000
      dx2y2   :     0.000000
      dxy     :     0.000000
  4 C s       :     0.000000  s :     0.000000
      pz      :     0.000000  p :     0.000000
      px      :     0.000000
      py      :     0.000000
      dz2     :     0.000000  d :     0.000000
      dxz     :     0.000000
      dyz     :     0.000000
      dx2y2   :     0.000000
      dxy     :     0.000000
  5 C s       :     0.000000  s :     0.000000
      pz      :     0.000000  p :     0.000000
      px      :     0.000000
      py      :     0.000000
      dz2     :     0.000000  d :     0.000000
      dxz     :     0.000000
      dyz     :     0.000000
      dx2y2   :     0.000000
      dxy     :     0.000000
  6 H s       :     0.000000  s :     0.000000
  7 H s       :     0.000000  s :     0.000000
  8 H s       :     0.000000  s :     0.000000
  9 H s       :     0.000000  s :     0.000000
 10 H s       :     0.000000  s :     0.000000
 11 H s       :     0.000000  s :     0.000000
 12 H s       :     0.000000  s :     0.000000
 13 H s       :     0.000000  s :     0.000000
 14 H s       :     0.000000  s :     0.000000
 15 H s       :     0.000000  s :     0.000000
 16 H s       :     0.000000  s :     0.000000
 17 H s       :     0.000000  s :     0.000000
 18 H s       :     0.000000  s :     0.000000
 19 H s       :     0.000000  s :     0.000000


                      *****************************
                      * MAYER POPULATION ANALYSIS *
                      *****************************

  NA   - Mulliken gross atomic population
  ZA   - Total nuclear charge
  QA   - Mulliken gross atomic charge
  VA   - Mayer's total valence
  BVA  - Mayer's bonded valence
  FA   - Mayer's free valence

  ATOM       NA         ZA         QA         VA         BVA        FA
  0 C      6.2623     6.0000    -0.2623     4.0091     4.0091     0.0000
  1 C      6.1299     6.0000    -0.1299     4.1140     4.1140     0.0000
  2 C      6.1343     6.0000    -0.1343     4.0853     4.0853     0.0000
  3 C      6.1809     6.0000    -0.1809     4.0855     4.0855     0.0000
  4 C      6.1481     6.0000    -0.1481     4.1149     4.1149     0.0000
  5 C      6.2349     6.0000    -0.2349     4.0049     4.0049     0.0000
  6 H      0.9030     1.0000     0.0970     0.9571     0.9571     0.0000
  7 H      0.9148     1.0000     0.0852     0.9570     0.9570     0.0000
  8 H      0.9113     1.0000     0.0887     0.9519     0.9519     0.0000
  9 H      0.9264     1.0000     0.0736     0.9455     0.9455     0.0000
 10 H      0.9316     1.0000     0.0684     0.9507     0.9507     0.0000
 11 H      0.9343     1.0000     0.0657     0.9556     0.9556     0.0000
 12 H      0.9321     1.0000     0.0679     0.9513     0.9513     0.0000
 13 H      0.9346     1.0000     0.0654     0.9555     0.9555     0.0000
 14 H      0.9232     1.0000     0.0768     0.9574     0.9574     0.0000
 15 H      0.9288     1.0000     0.0712     0.9502     0.9502     0.0000
 16 H      0.9298     1.0000     0.0702     0.9502     0.9502     0.0000
 17 H      0.9112     1.0000     0.0888     0.9519     0.9519     0.0000
 18 H      0.9145     1.0000     0.0855     0.9583     0.9583     0.0000
 19 H      0.9141     1.0000     0.0859     0.9575     0.9575     0.0000

  Mayer bond orders larger than 0.100000
B(  0-C ,  1-C ) :   1.1301 B(  0-C ,  6-H ) :   0.9572 B(  0-C ,  7-H ) :   0.9611 
B(  0-C ,  8-H ) :   0.9576 B(  1-C ,  2-C ) :   1.1103 B(  1-C ,  9-H ) :   0.9355 
B(  1-C , 10-H ) :   0.9334 B(  2-C ,  3-C ) :   1.1146 B(  2-C , 11-H ) :   0.9296 
B(  2-C , 12-H ) :   0.9302 B(  3-C ,  4-C ) :   1.1129 B(  3-C , 13-H ) :   0.9314 
B(  3-C , 14-H ) :   0.9281 B(  4-C ,  5-C ) :   1.1323 B(  4-C , 15-H ) :   0.9351 
B(  4-C , 16-H ) :   0.9346 B(  5-C , 17-H ) :   0.9602 B(  5-C , 18-H ) :   0.9601 
B(  5-C , 19-H ) :   0.9603 

-------
TIMINGS
-------

Total SCF time: 0 days 0 hours 3 min 48 sec 

Total time                  ....     228.819 sec
Sum of individual times     ....     186.110 sec  ( 81.3%)

Fock matrix formation       ....     157.121 sec  ( 68.7%)
  XC integration            ....      79.483 sec  ( 50.6% of F)
    Basis function eval.    ....       1.245 sec  (  1.6% of XC)
    Density eval.           ....       0.945 sec  (  1.2% of XC)
    XC-Functional eval.     ....       0.287 sec  (  0.4% of XC)
    XC-Potential eval.      ....       1.146 sec  (  1.4% of XC)
Diagonalization             ....       0.073 sec  (  0.0%)
Density matrix formation    ....       5.695 sec  (  2.5%)
Population analysis         ....      11.386 sec  (  5.0%)
Initial guess               ....       0.011 sec  (  0.0%)
Orbital Transformation      ....       0.000 sec  (  0.0%)
Orbital Orthonormalization  ....       0.003 sec  (  0.0%)
DIIS solution               ....       3.104 sec  (  1.4%)
Grid generation             ....       8.720 sec  (  3.8%)


-------------------------------------------------------------------------------
                          DFT DISPERSION CORRECTION                            
                                                                               
                              DFTD3 V3.1  Rev 1                                
                          USING Becke-Johnson damping                          
-------------------------------------------------------------------------------
The B3LYP functional is recognized
Active option DFTDOPT                   ...         4   

molecular C6(AA) [au] = 2519.024361 


            DFT-D V3
 parameters
 s6 scaling factor         :     1.0000 
 a1 scaling factor         :     0.3981 
 s8 scaling factor         :     1.9889 
 a2 scaling factor         :     4.4211 
 ad hoc parameters k1-k3   :    16.0000     1.3333    -4.0000 

 Edisp/kcal,au: -15.377861323079  -0.024506179298 
 E6   /kcal   :  -7.723291084 
 E8   /kcal   :  -7.654570239 
 % E8         :  49.776559157 

-------------------------   ----------------
Dispersion correction           -0.024506179
-------------------------   ----------------


-------------------------   --------------------
FINAL SINGLE POINT ENERGY      -236.723275703463
-------------------------   --------------------

                                *** OPTIMIZATION RUN DONE ***

                            ***************************************
                            *     ORCA property calculations      *
                            ***************************************

                                    ---------------------
                                    Active property flags
                                    ---------------------
   (+) Dipole Moment


------------------------------------------------------------------------------
                       ORCA ELECTRIC PROPERTIES CALCULATION
------------------------------------------------------------------------------

Dipole Moment Calculation                       ... on
Quadrupole Moment Calculation                   ... off
Polarizability Calculation                      ... off
GBWName                                         ... orca9.gbw
Electron density file                           ... orca9.scfp
The origin for moment calculation is the CENTER OF MASS  = ( 0.024900,  0.043330 -0.091055)

-------------
DIPOLE MOMENT
-------------
                                X             Y             Z
Electronic contribution:      0.27918       0.58163      -1.00113
Nuclear contribution   :     -0.26989      -0.57169       0.98694
                        -----------------------------------------
Total Dipole Moment    :      0.00929       0.00994      -0.01419
                        -----------------------------------------
Magnitude (a.u.)       :      0.01966
Magnitude (Debye)      :      0.04997



--------------------
Rotational spectrum 
--------------------
 
Rotational constants in cm-1:     0.287370     0.044541     0.041372 
Rotational constants in MHz :  8615.122217  1335.319262  1240.314574 

 Dipole components along the rotational axes: 
x,y,z [a.u.] :     0.010027     0.016709     0.002619 
x,y,z [Debye]:     0.025485     0.042470     0.006656 

 

Timings for individual modules:

Sum of individual times         ...     6089.998 sec (= 101.500 min)
GTO integral calculation        ...      154.756 sec (=   2.579 min)   2.5 %
SCF iterations                  ...     5626.642 sec (=  93.777 min)  92.4 %
SCF Gradient evaluation         ...      235.281 sec (=   3.921 min)   3.9 %
Geometry relaxation             ...       73.319 sec (=   1.222 min)   1.2 %
                             ****ORCA TERMINATED NORMALLY****
TOTAL RUN TIME: 0 days 1 hours 45 minutes 12 seconds 828 msec
