14
Properties=species:S:1:pos:R:3:forces:R:3:gap_forces:R:3 energy=-4267.3939719717255 name=nbu_bent gap_energy=-4267.3939719717255 config_type=start_0 pbc="F F F"
C       -1.17744425       0.67370112      -0.30499719       5.25068740     -11.07424140      -2.56891369       5.25068740     -11.07424140      -2.56891369
C       -0.55049402      -0.55310680      -0.87961352     -23.09621431       8.72632940     -23.47616143     -23.09621431       8.72632940     -23.47616143
C        0.15342794      -0.62530859      -0.15465921      27.15243665       0.02103667      42.99766330      27.15243665       0.02103667      42.99766330
C        1.42644828       0.79175630       0.41351440      63.89713394     -87.08993377      21.16119836      63.89713394     -87.08993377      21.16119836
H       -0.60295839       1.67493474       0.57547930      -0.34314095      -1.55823544      -3.83316825      -0.34314095      -1.55823544      -3.83316825
H       -1.73643879       0.02051395       1.28990583      -2.44282822      -1.11663595       3.57164399      -2.44282822      -1.11663595       3.57164399
H       -2.67061208       0.61226908      -0.66714585      -0.22774868       3.19113814      -0.70129686      -0.22774868       3.19113814      -0.70129686
H       -0.04625042      -0.32804674      -1.63332115      -4.32076937       5.49603723      -6.84627931      -4.32076937       5.49603723      -6.84627931
H       -0.82262290      -1.85474278      -0.71070594      -1.10472089       0.22977435      -0.79952922      -1.10472089       0.22977435      -0.79952922
H        0.10489923      -0.98763500       1.03637746       0.39718380       1.01505474      -6.76657563       0.39718380       1.01505474      -6.76657563
H        1.18818185      -1.53113020      -0.93839180       0.12706086      -5.54139380      -0.45115655       0.12706086      -5.54139380      -0.45115655
H        2.22400398       0.05870208       0.86891646       1.10842514       0.84480323       4.46875284       1.10842514       0.84480323       4.46875284
H        1.06297737       1.24133138       0.39473447     -71.77895147      85.46895874      -3.04902102     -71.77895147      85.46895874      -3.04902102
H        1.69775447       0.65544416      -0.30012883       5.38144611       1.38730787     -23.70715654       5.38144611       1.38730787     -23.70715654
14
Properties=species:S:1:pos:R:3:forces:R:3:gap_forces:R:3 energy=-4278.008215601799 name=nbu_bent gap_energy=-4278.008215601799 config_type=start_1 pbc="F F F"
C       -1.52007425       0.48188824      -0.02645682      -5.26573345     -22.28202893       6.00106628      -5.26573345     -22.28202893       6.00106628
C       -0.80144055      -0.47412116      -0.59488412      14.29586802      -9.37898962     -11.73794150      14.29586802      -9.37898962     -11.73794150
C        0.91352344      -0.77643564       0.38518840      -1.91261092      -1.14814151       4.20714854      -1.91261092      -1.14814151       4.20714854
C        2.25582728       0.57495258       0.57621382      -9.91853176       2.36158275      -2.85657214      -9.91853176       2.36158275      -2.85657214
H       -1.47871525       1.16557977       0.23995000       3.92267301      31.58392028       4.64710389       3.92267301      31.58392028       4.64710389
H       -1.34366640       0.07951757       0.77454887      -4.82253135       2.56677958       2.54145100      -4.82253135       2.56677958       2.54145100
H       -2.58603247       0.12235043      -0.66459795      -6.33084496       4.34528131       1.24219545      -6.33084496       4.34528131       1.24219545
H       -0.00889294       0.07132388      -1.68998170      -2.24476104      -1.46146453       1.71273271      -2.24476104      -1.46146453       1.71273271
H       -1.65837301      -1.19588062      -1.00550615       3.67961454      -7.89140076      -3.38192397       3.67961454      -7.89140076      -3.38192397
H        0.44093079      -1.24475407       1.51564622      -1.29140883      -0.05469491      -3.49718103      -1.29140883      -0.05469491      -3.49718103
H        1.58957231      -1.66901708       0.11521766      -1.25984768      -0.96339235      -2.68151716      -1.25984768      -0.96339235      -2.68151716
H        2.56279501      -0.19273008       1.20221861       4.42689894      -1.99929806       2.29823683       4.42689894      -1.99929806       2.29823683
H        0.84584392       0.98595882       1.48127759       2.63776669       2.09104095       0.16859813       2.63776669       2.09104095       0.16859813
H        1.46670472       1.21439853      -0.45298398       4.08344878       2.23080579       1.33660298       4.08344878       2.23080579       1.33660298
14
Properties=species:S:1:pos:R:3:forces:R:3:gap_forces:R:3 energy=-4279.792607775449 name=nbu_bent gap_energy=-4279.792607775449 config_type=start_2 pbc="F F F"
C       -1.13799997       0.65559098       0.36068886       2.25144292     -14.14829021      -4.28617010       2.25144292     -14.14829021      -4.28617010
C       -0.60179843      -1.06460146      -0.44270989      -9.77537023      33.56805341      12.41299045      -9.77537023      33.56805341      12.41299045
C        0.26240319      -0.81882881       0.38540378      10.08704442      -1.39998322      20.71846904      10.08704442      -1.39998322      20.71846904
C        1.85525398      -0.03779947       0.50384387      -6.82374413      -2.07008101      -5.66123604      -6.82374413      -2.07008101      -5.66123604
H       -0.91874954       1.92566209       0.26500683      -3.00857726       2.74028931      -0.70483671      -3.00857726       2.74028931      -0.70483671
H       -1.83538784      -0.34025997       1.02395743       1.18946459       2.77035450      -1.03498596       1.18946459       2.77035450      -1.03498596
H       -2.70102180       0.54625863      -0.37651587      -2.87275426       3.06965569      -0.13412404      -2.87275426       3.06965569      -0.13412404
H       -0.26190892       0.04650607      -2.07096872      -3.43225626       3.80383829     -12.32528979      -3.43225626       3.80383829     -12.32528979
H       -0.51557863      -1.70867210      -0.68059400      -6.50874380     -40.32022238     -14.12031036      -6.50874380     -40.32022238     -14.12031036
H        0.31464429      -1.01362720       1.40725012      -0.78600734      -0.40701907      -1.94482171      -0.78600734      -0.40701907      -1.94482171
H        0.90831129      -1.09693584      -0.16937632       7.62020051       6.53702072       0.77121813       7.62020051       6.53702072       0.77121813
H        2.77549202      -0.05843649       1.19032041       0.89461451      -0.82209520      -2.19039365       0.89461451      -0.82209520      -2.19039365
H        0.73893093       1.29743864       1.43880472       0.90604452       3.43729910       5.14527781       0.90604452       3.43729910       5.14527781
H        1.44503099       0.55611253      -0.99274769      10.25864180       3.24118006       3.35421291      10.25864180       3.24118006       3.35421291
14
Properties=species:S:1:pos:R:3:forces:R:3:gap_forces:R:3 energy=-4276.192982009371 name=nbu_bent gap_energy=-4276.192982009371 config_type=start_3 pbc="F F F"
C       -0.99233765       0.67974875      -0.06124234      -1.48668265       0.26071190       5.44541965      -1.48668265       0.26071190       5.44541965
C       -0.62867683      -0.41884930      -0.81293975       3.32811374     -19.42245343       9.15914424       3.32811374     -19.42245343       9.15914424
C        0.94612809      -0.85751312       0.06262715     -29.73794455      23.47730801     -12.11571238     -29.73794455      23.47730801     -12.11571238
C        2.09978694       0.94240271       0.07209548      -3.57253703      -9.19710503      60.09817445      -3.57253703      -9.19710503      60.09817445
H       -1.09843332       1.53127022       0.61901265       0.68601232       5.43701054      -0.65178335       0.68601232       5.43701054      -0.65178335
H       -1.34577314       0.08031140       0.54341162       3.74676883      -4.61085193       8.96036579       3.74676883      -4.61085193       8.96036579
H       -2.82828778       0.35503167      -0.78176138      -7.54905930      -0.07754716      -4.02362127      -7.54905930      -0.07754716      -4.02362127
H       -0.13034094       0.11595852      -1.19731426      13.69773596       6.51734517      -8.37398634      13.69773596       6.51734517      -8.37398634
H       -0.96916892      -1.60728959      -0.82676899       3.98584172       6.20335924       0.99639896       3.98584172       6.20335924       0.99639896
H        1.13776733      -1.18528161       0.85227706     -20.94872158       1.49962953       3.78024026     -20.94872158       1.49962953       3.78024026
H        1.46773832      -1.30305555       0.21064264      26.24357301     -30.67878131      -6.90018533      26.24357301     -30.67878131      -6.90018533
H        2.81169610       0.18335653       0.99935569       9.04197173       8.17739102       1.04892686       9.04197173       8.17739102       1.04892686
H        1.14199646       1.12975521       0.66314602       3.94291011       5.15757753      -0.99963812       3.94291011       5.15757753      -0.99963812
H        2.04992059       1.05234938      -0.57457520      -1.37798231       7.25640592     -56.42374343      -1.37798231       7.25640592     -56.42374343
14
Properties=species:S:1:pos:R:3:forces:R:3:gap_forces:R:3 energy=-4291.457140891578 name=nbu_bent gap_energy=-4291.457140891578 config_type=start_4 pbc="F F F"
C       -1.77275225       0.19805516       0.26290519       2.65971830       9.10848448      -2.09407860       2.65971830       9.10848448      -2.09407860
C       -0.05053540       0.00423688      -0.48944539      -7.50665736       9.88770169       6.60868161      -7.50665736       9.88770169       6.60868161
C        0.47043797      -0.67559613       0.35533923       8.39763434      -0.96182604       3.65676081       8.39763434      -0.96182604       3.65676081
C        1.07981310       0.71649430       0.30677604       1.96992648      -2.10631579      -1.75141885       1.96992648      -2.10631579      -1.75141885
H       -1.35104070       1.63609099       0.19633671      -3.71849311      -5.85889133      -0.93433406      -3.71849311      -5.85889133      -0.93433406
H       -2.28957537      -0.44563263       1.20333071      -2.52258942       1.25326812      -0.98916340      -2.52258942       1.25326812      -0.98916340
H       -2.87979078       0.32813088      -0.24323687      -0.76073576      -0.36801735       3.04430082      -0.76073576      -0.36801735       3.04430082
H        0.03039933      -0.06947755      -1.34757389       2.10075966       1.16595181      -7.69272311       2.10075966       1.16595181      -7.69272311
H       -0.72195567      -1.58668802      -1.38265019       0.31937486      -4.30168690       0.74416708       0.31937486      -4.30168690       0.74416708
H        0.10396906      -0.85532760       1.33227002       4.39386179      -2.57615996      -8.13252997       4.39386179      -2.57615996      -8.13252997
H        1.38355739      -1.04147776      -0.39457196      -1.73582893      -1.97351945       6.96962465      -1.73582893      -1.97351945       6.96962465
H        2.67042008       0.81730904       1.43805396       3.18112042      -0.15635788       1.73045281       3.18112042      -0.15635788       1.73045281
H        1.01981183       1.49402757       1.11921710      -3.16234394      -3.91487503      -2.01734267      -3.16234394      -3.91487503      -2.01734267
H        2.07514604       0.59908929      -0.45758541      -3.61574732       0.80224362       0.85760289      -3.61574732       0.80224362       0.85760289
14
Properties=species:S:1:pos:R:3:forces:R:3:gap_forces:R:3 energy=-4288.90230100601 name=nbu_bent gap_energy=-4288.90230100601 config_type=start_5 pbc="F F F"
C       -1.72705912      -0.02374119       0.11314509       0.99360691       7.66023616      11.94132432       0.99360691       7.66023616      11.94132432
C       -0.66905718      -0.77172005      -0.42319266       0.45744708      16.67118121       4.36992652       0.45744708      16.67118121       4.36992652
C        0.85771279      -0.55524226       1.02790613      -9.87238619     -23.62007056      -4.91601832      -9.87238619     -23.62007056      -4.91601832
C        1.71937662       0.46810255       0.60050664     -21.42837314       6.77494149      -7.09584201     -21.42837314       6.77494149      -7.09584201
H       -1.29900638       1.39901981       0.13736872      -2.27190308      -5.63332370      -1.51251399      -2.27190308      -5.63332370      -1.51251399
H       -1.56705294      -0.12887726       1.30854137       2.58037691       0.77834838      -6.01928631       2.58037691       0.77834838      -6.01928631
H       -2.83808764       0.39094225      -0.04157919       3.33891113      -1.82353183      -2.40694783       3.33891113      -1.82353183      -2.40694783
H       -0.25825068      -0.04166538      -1.68796055       3.20621182      -2.75463940       2.27862818       3.20621182      -2.75463940       2.27862818
H       -0.79772379      -1.61688931      -0.71341718      -4.02115355      -9.39764514      -4.08159569      -4.02115355      -9.39764514      -4.08159569
H        0.17405477      -2.01674643       1.30317866       4.29016257       2.38568521       2.91668217       4.29016257       2.38568521       2.91668217
H        1.63829629      -1.80493701      -0.75868253       4.16372725      -1.73949214      -2.43008883       4.16372725      -1.73949214      -2.43008883
H        2.43291564       0.62542956       0.88916294      20.40385409      -1.20409808      15.56218803      20.40385409      -1.20409808      15.56218803
H        0.89073461       1.03276408       1.12816287      -4.66911427      10.47137991       2.61076941      -4.66911427      10.47137991       2.61076941
H        2.36625505       0.99984336      -0.52664120       2.82863247       1.43102850     -11.21722566       2.82863247       1.43102850     -11.21722566
14
Properties=species:S:1:pos:R:3:forces:R:3:gap_forces:R:3 energy=-4289.6546255874755 name=nbu_bent gap_energy=-4289.6546255874755 config_type=start_6 pbc="F F F"
C       -1.81126308       0.29964221       0.57617048       6.13558689       3.44588253     -14.02527325       6.13558689       3.44588253     -14.02527325
C       -0.66934333      -0.50398624      -0.61597377      -4.03447157      -4.15830760       1.82933145      -4.03447157      -4.15830760       1.82933145
C        0.78117701      -0.63373865      -0.01104605       1.17339191      -0.53490348      -0.01669671       1.17339191      -0.53490348      -0.01669671
C        1.56383343       0.59954367      -0.08272018       1.31226495       4.34524341       7.13524707       1.31226495       4.34524341       7.13524707
H       -1.45291220       1.43773418       0.25713827       7.57170059       2.61661625       8.93328067       7.57170059       2.61661625       8.93328067
H       -1.79936910      -0.31905554       1.33045195       0.21335919      -3.22342447       2.01540833       0.21335919      -3.22342447       2.01540833
H       -2.27085172       0.51398188      -0.44749598      -4.59077057      -8.89200632       0.62964039      -4.59077057      -8.89200632       0.62964039
H       -0.43134255       0.00639623      -1.49513153      -1.04071453      -0.37629106      -3.72137805      -1.04071453      -0.37629106      -3.72137805
H       -0.72296756      -1.81312516      -0.68022570     -10.78926436       5.08711130      -3.34691629     -10.78926436       5.08711130      -3.34691629
H        0.85337263      -1.51299940       1.09523703       2.66641314      -3.51804552      -0.98290088       2.66641314      -3.51804552      -0.98290088
H        1.33831589      -1.96373693       0.12565902       2.37921494       0.55470077       5.57868405       2.37921494       0.55470077       5.57868405
H        2.62189121       0.22643990       1.34362042       2.46805726      -2.65362638       2.14770936       2.46805726      -2.65362638       2.14770936
H        0.91441426       0.73398607       1.10256302      -3.08925959       5.66666246      -1.24316710      -3.08925959       5.66666246      -1.24316710
H        2.05761974       1.54377707      -0.20394256      -0.37550825       1.64038810      -4.93296904      -0.37550825       1.64038810      -4.93296904
14
Properties=species:S:1:pos:R:3:forces:R:3:gap_forces:R:3 energy=-4210.317171725024 name=nbu_bent gap_energy=-4210.317171725024 config_type=start_7 pbc="F F F"
C       -1.57181222      -0.16037897       0.20904080     211.75978173     164.03946151    -399.44661917     211.75978173     164.03946151    -399.44661917
C        0.06380241      -0.66828871      -0.94522062      -4.36390082      -3.27341881      11.96497855      -4.36390082      -3.27341881      11.96497855
C        0.60047317      -0.76881098       0.91408169       7.39830491      20.77268635     -11.11561441       7.39830491      20.77268635     -11.11561441
C        2.01905262       0.40747426       0.06028783      -9.21310551      -3.20262714       0.68198596      -9.21310551      -3.20262714       0.68198596
H       -1.48656218       1.60605114       0.36444661      -1.79642900      -2.41086015      -1.00278194      -1.79642900      -2.41086015      -1.00278194
H       -1.73639370      -0.27851847       0.50730815    -215.78093450    -159.27633938     397.67023991    -215.78093450    -159.27633938     397.67023991
H       -2.77844974       0.47438383      -0.31150003       3.48446680      -0.87686290       1.63516996       3.48446680      -0.87686290       1.63516996
H       -0.12760294       0.31059717      -1.62743795       0.38392618      -2.35947647      -2.00986042       0.38392618      -2.35947647      -2.00986042
H       -1.16045993      -1.32114901      -1.39348597       7.05502281      -0.24940234       0.29487704       7.05502281      -0.24940234       0.29487704
H        0.42926817      -1.47209923       1.00960809      -5.88837043     -16.63708774       4.54680216      -5.88837043     -16.63708774       4.54680216
H        1.19470501      -1.61220604      -0.40300425      -2.03002438       5.16302157      -6.91093867      -2.03002438       5.16302157      -6.91093867
H        2.71681016      -0.27531660       0.64046423       0.62426829       1.71758920       1.91447888       0.62426829       1.71758920       1.91447888
H        0.65908741       1.39693123       1.16316542       5.19297760      -2.84501019       0.75420150       5.19297760      -2.84501019       0.75420150
H        1.94150150       1.15381642      -1.00754575       3.17401631      -0.56167352       1.02308064       3.17401631      -0.56167352       1.02308064
14
Properties=species:S:1:pos:R:3:forces:R:3:gap_forces:R:3 energy=-4282.445753080439 name=nbu_bent gap_energy=-4282.445753080439 config_type=start_8 pbc="F F F"
C       -1.69491371       0.55379434       0.25429506       2.67762576      -5.49865183      -4.24643720       2.67762576      -5.49865183      -4.24643720
C       -0.25069374      -0.37144546      -0.52524068     -12.29477474      -0.82077740      -5.26083206     -12.29477474      -0.82077740      -5.26083206
C        0.29475955      -0.24947676       0.67391636       2.76470289      -6.39919271       9.94595743       2.76470289      -6.39919271       9.94595743
C        1.71785707       0.01220267       0.14359430       7.99335888       7.72117932      -1.47596818       7.99335888       7.72117932      -1.47596818
H       -1.59433463       1.94108953       0.06407470      -0.84231518      -2.00748178       3.23768499      -0.84231518      -2.00748178       3.23768499
H       -1.84270842      -0.73859804       1.26628581      -2.13424970       6.60707581      -1.12881017      -2.13424970       6.60707581      -1.12881017
H       -2.52661686      -0.00275688      -0.59277762      -0.14296723       2.84358450       1.84386333      -0.14296723       2.84358450       1.84386333
H        0.43788549       0.56513011      -1.95802904      -1.23153216      -1.15003813      -5.28219235      -1.23153216      -1.15003813      -5.28219235
H       -0.89582158      -1.54504279      -1.01352080       1.73150119      -3.84874466      -1.18720665       1.73150119      -3.84874466      -1.18720665
H        0.53013102      -1.24220721       1.24430487      -1.82407634       1.27693333      -0.29336995      -1.82407634       1.27693333      -0.29336995
H        1.58681788      -1.41352473      -0.27304747       0.55440824       8.12984235      -0.23726665       0.55440824       8.12984235      -0.23726665
H        2.72500062       0.27376304       0.55177737      11.17579230      -8.49517944       0.06266480      11.17579230      -8.49517944       0.06266480
H        1.34906052       0.82307468       0.90627291      -9.79880913       2.05634257       9.16236467      -9.79880913       2.05634257       9.16236467
H        1.88193337       1.17060038      -0.54817404       1.37133521      -0.41489191      -5.14045200       1.37133521      -0.41489191      -5.14045200
14
Properties=species:S:1:pos:R:3:forces:R:3:gap_forces:R:3 energy=-4260.676550858433 name=nbu_bent gap_energy=-4260.676550858433 config_type=start_9 pbc="F F F"
C       -1.13833079       0.35003863      -0.39385367     -27.24628246       2.92905243       6.17867906     -27.24628246       2.92905243       6.17867906
C       -0.07708473       0.01503105      -0.51136375      33.28179929     -15.24500565      -5.26041572      33.28179929     -15.24500565      -5.26041572
C        1.04840622      -1.19633552      -0.08119350     -14.57943401      53.48993438      21.93901607     -14.57943401      53.48993438      21.93901607
C        1.74316350       0.90061947       0.59724642     -16.92548832       7.54217205     -17.21718871     -16.92548832       7.54217205     -17.21718871
H       -1.17453479       0.81177810       0.46294788      -8.88971529       9.93049024       3.76335216      -8.88971529       9.93049024       3.76335216
H       -1.48342993      -0.38025567       0.74451622      -1.76988385      -6.70485845       2.27555201      -1.76988385      -6.70485845       2.27555201
H       -2.39707706       0.73096149      -0.94294281       4.24026782      -0.39942329      -4.58367513       4.24026782      -0.39942329      -4.58367513
H        0.19290703      -0.18252274      -1.54584758       1.06209582       5.37026513      -0.95407361       1.06209582       5.37026513      -0.95407361
H       -0.68646929      -1.22427413      -1.36809115      -6.90857469      -7.64512351      -1.06800526      -6.90857469      -7.64512351      -1.06800526
H        1.27538361      -1.00040923       1.05551313      -4.70205870       0.41985350      -8.90133935      -4.70205870       0.41985350      -8.90133935
H        1.15524402      -1.80177128      -0.32115888      11.15507633     -49.91098662     -18.32836466      11.15507633     -49.91098662     -18.32836466
H        2.14851314       0.66732827       1.18795537      12.58281048      -4.69453831      14.49034074      12.58281048      -4.69453831      14.49034074
H        0.28002848       0.99854786       1.04865942      14.90480272       2.54991664      -0.64248802      14.90480272       2.54991664      -0.64248802
H        1.58610897       1.05013715      -0.92005417       3.79458487       2.36825147       8.30861042       3.79458487       2.36825147       8.30861042
14
Properties=species:S:1:pos:R:3:forces:R:3:gap_forces:R:3 energy=-4267.171942775138 name=nbu_bent gap_energy=-4267.171942775138 config_type=start_10 pbc="F F F"
C       -1.73562286       0.32895458      -0.19286397       7.93841255      -1.52330987      10.31549162       7.93841255      -1.52330987      10.31549162
C       -0.82225980      -0.63630745      -1.01151692      17.22552948      -5.12897203      86.75094590      17.22552948      -5.12897203      86.75094590
C        0.48071128      -1.23639686       0.35381117       8.54619240       8.75888105     -26.87814147       8.54619240       8.75888105     -26.87814147
C        1.50476573       0.70746715       0.45993459      -7.91459139      -6.59046030      -7.25407242      -7.91459139      -6.59046030      -7.25407242
H       -1.57440943       1.45854906       0.28916147       3.39034193       3.73725867       0.44863057       3.39034193       3.73725867       0.44863057
H       -1.92795157      -0.24416976       0.53834016       0.56558801      -2.97009840      13.60699230       0.56558801      -2.97009840      13.60699230
H       -2.48558032       0.37957197      -0.51917731     -19.46011792       6.60437610     -16.90356145     -19.46011792       6.60437610     -16.90356145
H       -0.91248622      -0.47535599      -1.57481098     -14.05750887      30.97821329     -93.08093522     -14.05750887      30.97821329     -93.08093522
H       -0.81631062      -1.38054007      -0.96705963       5.93526386     -32.52682553      -0.96791275       5.93526386     -32.52682553      -0.96791275
H        0.08831480      -1.35865459       1.06288762     -13.17911919      -7.83248046      24.58158737     -13.17911919      -7.83248046      24.58158737
H        1.60533503      -2.06770732      -0.41352407       1.60230905       2.13420522       1.10979198       1.60230905       2.13420522       1.10979198
H        2.13594842       0.39584935       1.01634202      17.86070798      -4.50836042      -3.08391974      17.86070798      -4.50836042      -3.08391974
H        1.28970075       0.71518504       1.39153101      -7.32931688       9.71980662       7.59699341      -7.32931688       9.71980662       7.59699341
H        1.95227560       0.86517568      -0.65022529      -1.12369102      -0.85223393       3.75810990      -1.12369102      -0.85223393       3.75810990
14
Properties=species:S:1:pos:R:3:forces:R:3:gap_forces:R:3 energy=-4248.372728837362 name=nbu_bent gap_energy=-4248.372728837362 config_type=start_11 pbc="F F F"
C       -1.21504523       0.53644181      -0.31025558     -73.65168750      64.16705870      70.35333265     -73.65168750      64.16705870      70.35333265
C       -0.65561200       0.09056451      -0.80865545      75.95122379     -57.32026901     -42.76668811      75.95122379     -57.32026901     -42.76668811
C        0.45486541      -0.49781796       0.25891179     -12.34285536       0.22470718      -6.16284615     -12.34285536       0.22470718      -6.16284615
C        0.97134249       0.67750733       0.72289860       2.45171274    -175.75194335     -76.86624507       2.45171274    -175.75194335     -76.86624507
H       -0.98441938       1.80916394       0.28405980      -4.74431935       2.76928706      -3.15155664      -4.74431935       2.76928706      -3.15155664
H       -1.83155605      -0.29869572       0.79886668       0.08190565      -0.61155995      -0.94108132       0.08190565      -0.61155995      -0.94108132
H       -2.83407447       0.46931804      -0.90373802      -2.12291590       2.50331770      -1.35392462      -2.12291590       2.50331770      -1.35392462
H       -0.46124214      -0.15182796      -1.54238719       3.45293646      -2.78879911     -15.78027483       3.45293646      -2.78879911     -15.78027483
H       -2.09117002      -1.83264589      -1.18968065      -2.17238913      -7.73876485      -1.00788703      -2.17238913      -7.73876485      -1.00788703
H       -0.02474472      -1.06709960       1.03434145       2.41947930       1.86518376      -0.08659489       2.41947930       1.86518376      -0.08659489
H        1.38771154      -1.51176531      -0.49005540       4.29648306      -7.31937150      -2.90929045       4.29648306      -7.31937150      -2.90929045
H        2.81265597       0.18299865       0.90807231       9.37673133      -3.15503723       3.89988991       9.37673133      -3.15503723       3.89988991
H        0.98108395       1.11636347       0.87953952       0.89482068     180.06249277      65.59624962       0.89482068     180.06249277      65.59624962
H        1.24988704       0.88648929      -0.20427798      -3.89112577       3.09369783      11.17691693      -3.89112577       3.09369783      11.17691693
14
Properties=species:S:1:pos:R:3:forces:R:3:gap_forces:R:3 energy=-4269.085597452937 name=nbu_bent gap_energy=-4269.085597452937 config_type=start_12 pbc="F F F"
C       -1.94343105       0.26136584      -0.04520650      38.71188828      86.03888861    -114.96956572      38.71188828      86.03888861    -114.96956572
C        0.00276839      -0.39240454      -0.53551058      -6.36411161       3.84068565     -11.89701023      -6.36411161       3.84068565     -11.89701023
C        1.12399244      -1.21672750      -0.16864990      -2.19230226       4.94827903       5.32805824      -2.19230226       4.94827903       5.32805824
C        1.15858506       0.24626342       0.04133061      -1.99593692      -4.75707758       3.62195946      -1.99593692      -4.75707758       3.62195946
H       -1.37985932       1.51325579      -0.03445387      -0.06142193       0.21195543       1.87066855      -0.06142193       0.21195543       1.87066855
H       -2.06794695      -0.05465429       0.34976243     -31.71409039     -88.63776346     120.45369762     -31.71409039     -88.63776346     120.45369762
H       -2.11961395       0.22185783      -0.94430035      -3.24335146       2.88343193      -6.92623884      -3.24335146       2.88343193      -6.92623884
H        0.07267077      -0.35559274      -2.01256192       1.42498959      -0.61273786       1.11132284       1.42498959      -0.61273786       1.11132284
H       -1.43690867      -1.47317654      -0.65309504       1.09879671      -2.07881128       1.47282272       1.09879671      -2.07881128       1.47282272
H        0.30348474      -1.34717549       0.66105172       3.21779600       1.29256985       2.86892991       3.21779600       1.29256985       2.86892991