14
Properties=species:S:1:pos:R:3:forces:R:3:gap_forces:R:3 energy=-4248.574715501124 name=nbu_straight gap_energy=-4248.574715501124 config_type=start_0 pbc="F F F"
C       -1.43532718      -0.09364629      -1.83670626       0.72897555       1.32739126       7.72272689       0.72897555       1.32739126       7.72272689
C       -1.27417687       0.38109263       0.58551629       8.66957779      -6.92510475      -9.40427305       8.66957779      -6.92510475      -9.40427305
C        1.85279520      -0.23432748      -0.81984822      -0.71010018      -1.00166249       4.96756516      -0.71010018      -1.00166249       4.96756516
C        2.48679422      -0.02620829       0.81766895     -32.83823980     -39.44523429      78.01388671     -32.83823980     -39.44523429      78.01388671
H       -1.70693201       0.59691157       1.51897406      -0.31319023      -0.37233305       2.21727615      -0.31319023      -0.37233305       2.21727615
H       -2.08230809       2.49135461      -1.61443266       0.27986249      -1.30481176      -0.17240423       0.27986249      -1.30481176      -0.17240423
H       -0.54173844      -0.81329175      -0.24889541      -6.00469742       6.13008454      -4.19991606      -6.00469742       6.13008454      -4.19991606
H        0.50714298      -0.45355571       0.94250246     -10.82013794       6.50096585      -0.99799736     -10.82013794       6.50096585      -0.99799736
H        1.24020762      -1.54350477       0.81139626      -2.38395405      -9.22854083      -0.81295309      -2.38395405      -9.22854083      -0.81295309
H        1.85273434       0.94827162      -0.08316518       6.68726291      -1.42677677       6.64835040       6.68726291      -1.42677677       6.64835040
H        1.24277782       2.87351210       0.39653976       3.03529719       1.03211914       3.13749674       3.03529719       1.03211914       3.13749674
H        3.53937733       1.95295025       1.84183792      -5.70403159       1.37144034      -3.47199930      -5.70403159       1.37144034      -3.47199930
H        2.35756554      -1.32547135       1.74379280       8.70400693       1.08353355       6.30693751       8.70400693       1.08353355       6.30693751
H        2.65920909       0.21671461       0.31978305      30.66936837      42.25892927     -89.95469648      30.66936837      42.25892927     -89.95469648
14
Properties=species:S:1:pos:R:3:forces:R:3:gap_forces:R:3 energy=-4245.935840829766 name=nbu_straight gap_energy=-4245.935840829766 config_type=start_1 pbc="F F F"
C       -2.75775487      -0.36704317       1.02402272       4.14081376       1.18138050     -10.31313156       4.14081376       1.18138050     -10.31313156
C       -2.18474208      -0.49396229      -0.73378685      -0.24961906       1.94593031      12.34628302      -0.24961906       1.94593031      12.34628302
C        1.15109626       2.17722704       0.28675737      -1.48807038      -1.69155120       0.51073094      -1.48807038      -1.69155120       0.51073094
C        3.25261001       1.33435576       1.48503864       1.27002973      -1.40225262      -0.37940191       1.27002973      -1.40225262      -0.37940191
H       -3.95947445       1.35187046       0.70908592       0.28158235      -1.66392420       0.62939556       0.28158235      -1.66392420       0.62939556
H       -2.72552367       1.27188272      -0.72134344      -0.26100281       0.10046416      -0.53422713      -0.26100281       0.10046416      -0.53422713
H       -1.22195194      -1.48749801      -1.76984935       0.03089730       1.52126646       1.59118371       0.03089730       1.52126646       1.59118371
H        0.44954043       0.42534811       0.96251372       4.15390398     -11.04917985     -14.36900327       4.15390398     -11.04917985     -14.36900327
H       -0.50809355      -0.00898263       1.38821165     -13.91201474      -4.79146542      -0.12358885     -13.91201474      -4.79146542      -0.12358885
H       -0.45305687      -0.40052696      -0.72141751       0.45507000      -1.78437472      -4.22804606       0.45507000      -1.78437472      -4.22804606
H        0.27093892       1.11684971       1.51651676      -5.88564321      15.70690343       4.61020505      -5.88564321      15.70690343       4.61020505
H        1.17950700       1.24225990       2.23101320       7.84965572       9.46066860       7.24823094       7.84965572       9.46066860       7.24823094
H        1.37180289      -1.17562777       2.35292767       4.65447578      -8.39137534       2.34907350       4.65447578      -8.39137534       2.34907350
H        4.93907165      -0.36147780       0.44201887      -1.04007844       0.85750989       0.66229605      -1.04007844       0.85750989       0.66229605
14
Properties=species:S:1:pos:R:3:forces:R:3:gap_forces:R:3 energy=-4206.956089311905 name=nbu_straight gap_energy=-4206.956089311905 config_type=start_2 pbc="F F F"
C       -3.32560905      -1.96021756      -1.02118123       2.27728573       1.73813133       1.03598034       2.27728573       1.73813133       1.03598034
C       -0.29932667      -0.77669973       2.24946009    -118.90029556     124.38988750      86.10512917    -118.90029556     124.38988750      86.10512917
C        0.58526757       0.53805243      -0.99822276      -0.88794515      -1.43976656      -0.40753640      -0.88794515      -1.43976656      -0.40753640
C        0.18948173      -1.29161608       1.89971210      77.23535473    -123.25626445      85.93341809      77.23535473    -123.25626445      85.93341809
H       -1.96710628      -1.34335795      -0.96000437       4.96951575     -18.83705816      -2.44874011       4.96951575     -18.83705816      -2.44874011
H       -1.34370699       1.38829597      -1.68533393       0.32082941      -0.06855626      -1.41743604       0.32082941      -0.06855626      -1.41743604
H       -2.19364760      -0.35744102      -0.89262223      -3.34435320      19.37695536       6.22008471      -3.34435320      19.37695536       6.22008471
H       -2.13191161       1.02158530       1.49881900      -3.01273317      -3.42106177      -4.90236332      -3.01273317      -3.42106177      -4.90236332
H       -1.52818587      -3.46362485       1.09608702       2.00516455       3.49496299      -0.24124112       2.00516455       3.49496299      -0.24124112
H       -0.13876498      -1.26217454      -2.71547078      -2.69506281       1.99932473       3.31383438      -2.69506281       1.99932473       3.31383438
H       -0.05148277       1.41288056       0.34926635       1.15568101       0.11722421      -1.54919012       1.15568101       0.11722421      -1.54919012
H        0.90348831       0.23021715       1.96857270       5.93652000       0.85625002       0.74445008       5.93652000       0.85625002       0.74445008
H        0.29556346      -1.28972529       1.43951956      38.71860836      -4.18992024    -174.16256103      38.71860836      -4.18992024    -174.16256103
H        3.38708756       0.79329095       0.73312815      -3.77856965      -0.76010871       1.77617137      -3.77856965      -0.76010871       1.77617137
14
Properties=species:S:1:pos:R:3:forces:R:3:gap_forces:R:3 energy=-4211.4270426319745 name=nbu_straight gap_energy=-4211.4270426319745 config_type=start_3 pbc="F F F"
C       -2.09953161       0.31189421       0.77348268     -39.31477744     -59.04221806    -149.26124516     -39.31477744     -59.04221806    -149.26124516
C       -0.46925507      -0.20281234       2.39499076       4.77671615      -0.62699919      -7.51762813       4.77671615      -0.62699919      -7.51762813
C        0.26273993      -1.20015480      -0.76919509       3.09483996       9.13609806      17.10034802       3.09483996       9.13609806      17.10034802
C        2.26302751      -0.38709171       1.69854635      45.45401485      27.26622491      82.30795887      45.45401485      27.26622491      82.30795887
H       -1.96687515       0.46733510       1.21134495      46.70805271      55.83631197     149.62351055      46.70805271      55.83631197     149.62351055
H       -1.12185655       2.63495834      -0.13899281       0.75151224      -0.94034959       0.89502595       0.75151224      -0.94034959       0.89502595
H       -2.42450217       0.27604402      -1.64224083       0.37905358       0.12666060       1.86862870       0.37905358       0.12666060       1.86862870
H        0.70588745       0.30367351       1.75084570     -13.42279936      -1.44757251      12.31060314     -13.42279936      -1.44757251      12.31060314
H        0.13197834       0.20505904       1.94228453      -2.36678653       3.06798638      -0.56585259      -2.36678653       3.06798638      -0.56585259
H       -0.41408656      -0.45114074       1.03672464     -12.97895389      -2.14582257      -2.70715003     -12.97895389      -2.14582257      -2.70715003
H        1.34674097       1.15424464      -0.04559578       1.10614072       6.06224842      -5.42299231       1.10614072       6.06224842      -5.42299231
H        1.93785916      -0.52762313       1.22146926     -46.31302039     -31.02304218     -75.74195405     -46.31302039     -31.02304218     -75.74195405
H        1.19172807       0.17095562       1.32359435      10.53395439      -3.70956410     -16.93310100      10.53395439      -3.70956410     -16.93310100
H        2.86198570      -1.46070197      -0.75909411       1.59205302      -2.55996211      -5.95615196       1.59205302      -2.55996211      -5.95615196
14
Properties=species:S:1:pos:R:3:forces:R:3:gap_forces:R:3 energy=-3153.3725301013924 name=nbu_straight gap_energy=-3153.3725301013924 config_type=start_4 pbc="F F F"
C       -1.01392094      -0.60704858      -1.05265378      19.96171721       5.63370191      15.30713760      19.96171721       5.63370191      15.30713760
C        0.48940679      -0.22551179       0.43917334    7030.26548451   -1305.35794138   12603.87954513    7030.26548451   -1305.35794138   12603.87954513
C        0.39599851      -0.20805887       0.27170206   -7035.57679102    1319.13928856  -12616.92225794   -7035.57679102    1319.13928856  -12616.92225794
C        2.31479456       0.57861075      -0.03372764     -15.37211402      -5.16791577       3.28048039     -15.37211402      -5.16791577       3.28048039
H       -3.54013701      -0.65201076       2.57029227       2.83795280      -1.31213550      -2.57170987       2.83795280      -1.31213550      -2.57170987
H       -1.99360534       2.04511460       0.85608447     -24.33300391      10.92170223       2.96698063     -24.33300391      10.92170223       2.96698063
H       -1.77603323       0.16274696      -1.01966259       0.20857644      -2.68495558      -3.47537333       0.20857644      -2.68495558      -3.47537333
H       -1.14723307       1.38955960       1.33612969       3.14614297     -13.07738852      19.11618883       3.14614297     -13.07738852      19.11618883
H       -1.53008901      -1.61992222       0.74827064      -4.01879296       0.81502654       1.76673413      -4.01879296       0.81502654       1.76673413
H        0.94609189       0.06880260      -1.06710469      -4.72496970      -5.68798338      -2.09458415      -4.72496970      -5.68798338      -2.09458415
H        1.57998495       2.34451454      -0.27476362      -7.67577579       0.32548244       2.83813176      -7.67577579       0.32548244       2.83813176
H       -1.04481299       1.83706101       0.58203068      33.88197574      -0.88738441     -21.73808518      33.88197574      -0.88738441     -21.73808518
H        1.13147837       0.58205532       3.67333502      -0.03323253      -0.01790129      -0.14020735      -0.03323253      -0.01790129      -0.14020735
H        2.14204129      -2.07288472      -0.25679034       1.43283026      -2.64159584      -2.21298066       1.43283026      -2.64159584      -2.21298066
14
Properties=species:S:1:pos:R:3:forces:R:3:gap_forces:R:3 energy=-4255.407225129383 name=nbu_straight gap_energy=-4255.407225129383 config_type=start_5 pbc="F F F"
C       -3.30919382       0.44155451      -1.52037930      -0.55851411       0.83810698      -0.50809186      -0.55851411       0.83810698      -0.50809186
C        0.60204869      -0.37026694       1.03937662      -1.12640228      -0.97709083      -0.19598478      -1.12640228      -0.97709083      -0.19598478
C        0.21231476       2.47144123      -1.27491263      -0.22930035      -0.56947510       1.11493785      -0.22930035      -0.56947510       1.11493785
C        2.92274332      -2.60374609       0.65930935      -0.36471388       0.85778995       0.34702579      -0.36471388       0.85778995       0.34702579
H       -1.20811122      -1.51174275       0.20924675       3.01455192       2.21143654       1.08666639       3.01455192       2.21143654       1.08666639
H       -3.78777034      -0.81403724      -1.54530478       1.90914852      -1.00089594       1.46770988       1.90914852      -1.00089594       1.46770988
H       -3.04527602      -2.07996621      -0.77483613      -3.05747037      -0.53569727      -1.76958619      -3.05747037      -0.53569727      -1.76958619
H       -2.36371856       1.87182194       1.19457126       3.84842860       0.16940742      -2.01733362       3.84842860       0.16940742      -2.01733362
H       -2.41318046      -3.04979327       2.66883267       0.01864949       0.02558005      -0.04072507       0.01864949       0.02558005      -0.04072507
H        1.59153952      -0.56877127      -0.02642498      -1.64763111      -0.92972818      -2.18697461      -1.64763111      -0.92972818      -2.18697461
H        0.20184246       2.02606875      -0.07671347      -3.57555366      -0.22497035       0.18413736      -3.57555366      -0.22497035       0.18413736
H        1.78428321       0.78064750       1.08107619      -1.02784323      -1.37687568       5.19179682      -1.02784323      -1.37687568       5.19179682
H        2.19380410      -1.64047047       2.11561280       0.80874197       2.44345709      -0.90820923       0.80874197       2.44345709      -0.90820923
H        3.06408275       0.16455545      -0.36635025       1.98790849      -0.93104468      -1.76536873       1.98790849      -0.93104468      -1.76536873
14
Properties=species:S:1:pos:R:3:forces:R:3:gap_forces:R:3 energy=-4234.449398201661 name=nbu_straight gap_energy=-4234.449398201661 config_type=start_6 pbc="F F F"
C       -0.96385961       0.55949071      -1.01540515      -1.94729014       0.52612648       5.77832506      -1.94729014       0.52612648       5.77832506
C        0.15101132      -1.02088819       0.99631937       8.80071139      -1.84945433     -33.21150092       8.80071139      -1.84945433     -33.21150092
C        0.67360950       1.01371596       1.43454534      68.69242385     100.50293600     -22.98783087      68.69242385     100.50293600     -22.98783087
C        2.10835582       1.72266442       1.32744101     -11.19409321     -12.61446945       0.43931498     -11.19409321     -12.61446945       0.43931498
H       -2.32338130      -0.98527871       2.15680360      -5.28423282      -8.06911388       7.78167357      -5.28423282      -8.06911388       7.78167357
H       -2.13771162       0.58813866       0.77614044      16.04307592     -17.88261192      -8.91817327      16.04307592     -17.88261192      -8.91817327
H       -1.50976315      -0.80989340      -1.92815512       0.65416984       0.85958145      -0.26596309       0.65416984       0.85958145      -0.26596309
H       -2.25787978       0.86328247       0.85819579      -3.29055481      23.03804391       1.04934517      -3.29055481      23.03804391       1.04934517
H        0.10483961      -0.89206044       1.66779039      -1.41751897       6.06719311      32.35036891      -1.41751897       6.06719311      32.35036891
H        1.66647391       0.11087236      -0.59164706      -4.00696630      -2.28265297      -2.87642665      -4.00696630      -2.28265297      -2.87642665
H        1.87509412      -0.27676107       0.73614496     -11.56160344       5.44508306       3.91643139     -11.56160344       5.44508306       3.91643139
H        0.34412126       0.59154906       1.53596481     -72.96847289     -93.07825474      16.21874089     -72.96847289     -93.07825474      16.21874089
H        2.83572746      -0.42557967       1.73822705       5.14896108      -4.04431264       3.10995533       5.14896108      -4.04431264       3.10995533
H        3.22354603       0.66582057       0.54845985      12.33139050       3.38190592      -2.38426050      12.33139050       3.38190592      -2.38426050
14
Properties=species:S:1:pos:R:3:forces:R:3:gap_forces:R:3 energy=-4203.505342780385 name=nbu_straight gap_energy=-4203.505342780385 config_type=start_7 pbc="F F F"
C       -1.65012626      -0.61389878      -0.55771954      33.52894632     -11.11607973      34.44369197      33.52894632     -11.11607973      34.44369197
C        0.56686852       0.88079831       2.03674339    -160.22392077    -186.79145020     181.38966024    -160.22392077    -186.79145020     181.38966024
C        0.92451307       1.29709477       1.63211960     163.69204066     185.87859773    -179.41479262     163.69204066     185.87859773    -179.41479262
C        2.78897512      -1.78630804       0.88835652      -1.03178047       1.23278630       1.41116639      -1.03178047       1.23278630       1.41116639
H       -2.96254590       1.45189820      -0.08436532      -0.77176442       2.18437243       1.52113182      -0.77176442       2.18437243       1.52113182
H       -2.67611680       1.89311823      -1.82570393       0.19663219       0.87198565      -0.01068536       0.19663219       0.87198565      -0.01068536
H       -2.09379216      -0.37898865      -1.02246744     -26.21457266      10.65605277     -29.67073735     -26.21457266      10.65605277     -29.67073735
H       -0.48344096       1.62382516       1.90866884      -6.70480909      -1.02410329       4.27809528      -6.70480909      -1.02410329       4.27809528
H        0.51530402      -0.19860613      -0.03299606      -2.87301053      -3.88814945       3.05447519      -2.87301053      -3.88814945       3.05447519
H       -0.87645622      -0.08606598       0.21493582      -1.10786115      -0.15867093      -6.32764238      -1.10786115      -0.15867093      -6.32764238
H        0.82549011       2.17151368       0.10124750       2.03638607       2.60893740      -6.31530122       2.03638607       2.60893740      -6.31530122
H        2.23594381      -2.99815574       2.52762176       0.97542640      -1.70056112      -0.44863813       0.97542640      -1.70056112      -0.44863813
H        1.38770668      -1.08409520       2.51694829      -1.29736637       1.55896312      -3.54331038      -1.29736637       1.55896312      -3.54331038
H        4.51034888      -0.15948369       1.11575088      -0.20434619      -0.31268068      -0.36711345      -0.20434619      -0.31268068      -0.36711345
14
Properties=species:S:1:pos:R:3:forces:R:3:gap_forces:R:3 energy=-4256.0795003564135 name=nbu_straight gap_energy=-4256.0795003564135 config_type=start_8 pbc="F F F"
C       -1.05128295       1.57160246      -0.04932172      -4.23684388       1.78213680      -3.55997638      -4.23684388       1.78213680      -3.55997638
C       -1.33443281      -0.52518653       0.60524831     -26.50525377     -40.81601066       2.66999008     -26.50525377     -40.81601066       2.66999008
C       -0.23495787       0.70779453       0.35824840       7.66637391      -9.27962398       3.35606349       7.66637391      -9.27962398       3.35606349
C        1.73563519       0.89078073       1.79857847      -7.64089731       0.17922661      -5.89977119      -7.64089731       0.17922661      -5.89977119
H       -2.76146611      -0.32481165      -0.10616874      13.49245859       4.53264148      19.45583358      13.49245859       4.53264148      19.45583358
H       -2.85477209      -0.45067845      -0.73678413      -3.10121093       1.54593205      -5.23592455      -3.10121093       1.54593205      -5.23592455
H       -2.33599471      -0.48649612      -1.76797001       0.92486833      -0.98142192     -16.01704292       0.92486833      -0.98142192     -16.01704292
H       -0.80900665       0.63879790       2.24294195       1.58249350       0.52280394      -3.30142603       1.58249350       0.52280394      -3.30142603
H       -1.04763030       0.06356536       0.58670645      22.71203566      39.69098165       5.77345614      22.71203566      39.69098165       5.77345614
H        0.93089653       1.41750924      -1.65107644       1.52745667       0.75214322      -4.62954844       1.52745667       0.75214322      -4.62954844
H        1.01041061       1.95731846       0.53615158      -5.00607451      -0.58186738       4.62540578      -5.00607451      -0.58186738       4.62540578
H        2.90625369       0.62027769       1.28164930       4.03334784       2.78528221      -0.01804547       4.03334784       2.78528221      -0.01804547
H        2.12040004      -1.31428234       0.97175790      -2.36950374      -3.39884805      -0.15311597      -2.36950374      -3.39884805      -0.15311597
H        0.82425768       0.24326245       0.03502371      -3.07925035       3.26662403       2.93410187      -3.07925035       3.26662403       2.93410187
14
Properties=species:S:1:pos:R:3:forces:R:3:gap_forces:R:3 energy=-4268.381772580768 name=nbu_straight gap_energy=-4268.381772580768 config_type=start_9 pbc="F F F"
C       -2.63471388      -0.55817176       0.64104462       6.09999660       4.50307259      -1.25913584       6.09999660       4.50307259      -1.25913584
C       -0.09034809       0.09875331       1.12000873      -3.14214205      -5.52764405     -10.17397277      -3.14214205      -5.52764405     -10.17397277
C        1.22942014      -0.51320501       0.75647872      -4.58433683       7.78760082       2.17467282      -4.58433683       7.78760082       2.17467282
C        1.32038037       0.44997160       2.22084370      -4.56128301      -8.16561148      -5.26564662      -4.56128301      -8.16561148      -5.26564662
H       -0.75804324       0.37395656       1.67708247       9.80537778       4.88183279      10.79349090       9.80537778       4.88183279      10.79349090
H       -1.05605720       2.42236321      -0.15220207      -1.27665787      -1.38472499       0.25875739      -1.27665787      -1.38472499       0.25875739
H       -1.49505553      -0.43436467      -0.12054030      -1.36590510     -10.96856837      -1.54184839      -1.36590510     -10.96856837      -1.54184839
H       -1.53708067       1.28826771       1.35337745      -2.93442705       0.25211861       2.10770214      -2.93442705       0.25211861       2.10770214
H        0.20889968       0.11841844       1.90868292      -4.52438302       5.30852182      -0.45151828      -4.52438302       5.30852182      -0.45151828
H        0.68088481      -1.59612843       1.22684508      -0.72416252       0.25803144      -5.57840326      -0.72416252       0.25803144      -5.57840326
H       -1.09886976       0.39577369      -0.33378466       4.18342167       3.85034270       0.17084837       4.18342167       3.85034270       0.17084837
H        1.12410169      -0.72613353       3.41678754       1.25094046      -1.22912808      14.11556762       1.25094046      -1.22912808      14.11556762
H        2.26191104       0.50227561       1.87100465      -1.09234052       1.22818731      -8.39184676      -1.09234052       1.22818731      -8.39184676
H        1.83064397       1.18836017      -0.69592721       2.86590147      -0.79403109       3.04133269       2.86590147      -0.79403109       3.04133269
14
Properties=species:S:1:pos:R:3:forces:R:3:gap_forces:R:3 energy=-4254.907113103499 name=nbu_straight gap_energy=-4254.907113103499 config_type=start_10 pbc="F F F"
C       -2.38519731      -0.88931178       0.52435612      -0.81408662      -2.39716355      -1.62093582      -0.81408662      -2.39716355      -1.62093582
C       -0.67750141      -0.52969757       1.12480681      -6.57461494       1.13314252      -3.05561659      -6.57461494       1.13314252      -3.05561659
C        0.88162652       1.48161967      -0.35781692     -63.50659623       3.73746987     -15.81444248     -63.50659623       3.73746987     -15.81444248
C        1.40850249       1.12482046       1.61958180      -2.73656696      -0.33305312      -8.37648807      -2.73656696      -0.33305312      -8.37648807
H       -1.94784751      -0.09617270       0.86759222       8.18270221       5.26616493       5.32740151       8.18270221       5.26616493       5.32740151
H       -2.82031124      -1.15067544      -0.78485174      -2.25784278      -0.37179224       2.27416572      -2.25784278      -0.37179224       2.27416572
H       -0.51051996      -1.49480286      -1.41072445       5.11622975      -1.37640628      -3.05105228       5.11622975      -1.37640628      -3.05105228
H       -0.35779186      -1.04623193       2.43277779       4.23419578     -11.35665570     -18.78515230       4.23419578     -11.35665570     -18.78515230
H       -0.35416371      -0.36918652       3.15467391       3.37001508      17.66452904       8.30147634       3.37001508      17.66452904       8.30147634
H        1.46631948       1.82385669      -1.13108043       4.84798979       5.38555636     -18.83742596       4.84798979       5.38555636     -18.83742596
H        0.77100751       1.73454679       0.47927204      -8.42552729       3.74681523      25.84530536      -8.42552729       3.74681523      25.84530536
H        1.51651997       1.46365158      -0.28431541      68.94124899      -4.47771994      11.93770042      68.94124899      -4.47771994      11.93770042
H        0.91808439       0.21078275       0.62388922     -15.04235302     -19.21974338      12.42386338     -15.04235302     -19.21974338      12.42386338
H        2.42286537       0.47916304       0.92686409       4.66520624       2.59885625       3.43120076       4.66520624       2.59885625       3.43120076
14
Properties=species:S:1:pos:R:3:forces:R:3:gap_forces:R:3 energy=-4248.192726576785 name=nbu_straight gap_energy=-4248.192726576785 config_type=start_11 pbc="F F F"
C       -2.36961448      -0.65911775      -1.52331634      -3.93622520       2.91514057      10.09687463      -3.93622520       2.91514057      10.09687463
C       -2.11191572       0.75243238      -0.13963112       9.27261872      -3.85748910       3.91136530       9.27261872      -3.85748910       3.91136530
C        0.40428579       0.32719369      -1.65882652       2.33388584       3.92257760      15.07720145       2.33388584       3.92257760      15.07720145
C       -0.42111924       0.10140507       0.60266256      -5.34271385       0.54077258      -9.89987424      -5.34271385       0.54077258      -9.89987424
H       -3.07478417      -1.51918988       0.50755253       1.05622524      -2.56422669       4.21690464       1.05622524      -2.56422669       4.21690464
H       -2.54489274      -0.22160943      -0.28818931       2.49176851      -0.83812116     -10.27450772       2.49176851      -0.83812116     -10.27450772
H       -3.80912877      -1.31034578      -1.47920423       0.11342214       0.79015158      -3.21370345       0.11342214       0.79015158      -3.21370345
H        0.71965291       1.15037491       1.07968767     -23.14615139       7.26289291       1.06951310     -23.14615139       7.26289291       1.06951310
H       -0.11964324      -1.49019556       0.80642870       1.36278649       8.83814249       1.11724883       1.36278649       8.83814249       1.11724883
H        1.16612498       0.47633825      -0.37161104     -21.26004908      -6.32589379      -8.24365923     -21.26004908      -6.32589379      -8.24365923
H        2.06292329       0.61696407      -0.51024379      15.76212779       2.76369457      -7.03318833      15.76212779       2.76369457      -7.03318833
H        0.75663649       0.42708806       2.79849278      -0.89637126      -1.48618520      -1.81310101      -0.89637126      -1.48618520      -1.81310101
H        1.56911815       0.84873659       1.09191241      19.72886543      -7.64702934       8.24435026      19.72886543      -7.64702934       8.24435026
H        1.13349596      -0.28672515      -1.77680234       2.45981062      -4.31442700      -3.25542424       2.45981062      -4.31442700      -3.25542424
14
Properties=species:S:1:pos:R:3:forces:R:3:gap_forces:R:3 energy=-4241.265061588548 name=nbu_straight gap_energy=-4241.265061588548 config_type=start_12 pbc="F F F"
C       -3.76951179       0.23021460      -1.23314196       1.54002949      -0.40046777       0.02019344       1.54002949      -0.40046777       0.02019344
C       -1.25672716       2.01002709       0.27990220       1.51804793      -5.57664215      -1.28021521       1.51804793      -5.57664215      -1.28021521
C        1.42790603       0.34342678      -0.92816787      -1.96701048       0.81855344       7.12665240      -1.96701048       0.81855344       7.12665240
C        1.48734400       0.15108628       0.95208342      -6.85547655       0.83701331     -11.56304179      -6.85547655       0.83701331     -11.56304179
H       -1.68322689      -1.08505533       1.32691618      -1.79371567      -9.78281480       2.34895940      -1.79371567      -9.78281480       2.34895940
H       -0.39601428       0.86965173      -1.42720157      15.46397704      25.32690516      15.15684980      15.46397704      25.32690516      15.15684980
H       -1.88020188      -0.99945343      -1.24297721      -6.44308406      -3.86196647      -5.17312866      -6.44308406      -3.86196647      -5.17312866
H       -1.18464352       0.90040892       2.08650099       4.22351804      15.13216350     -14.20441994       4.22351804      15.13216350     -14.20441994
H       -1.12144501       1.13496826       1.74077804      -0.14955041      -3.91777040      14.86091180      -0.14955041      -3.91777040      14.86091180
H        0.73045149      -0.92494437      -1.48673927       4.47347557     -10.08668775      -5.04836016       4.47347557     -10.08668775      -5.04836016