
                                 *****************
                                 * O   R   C   A *
                                 *****************

           --- An Ab Initio, DFT and Semiempirical electronic structure package ---

                  #######################################################
                  #                        -***-                        #
                  #          Department of theory and spectroscopy      #
                  #               Directorship: Frank Neese             #
                  #        Max Planck Institute fuer Kohlenforschung    #
                  #                Kaiser Wilhelm Platz 1               #
                  #                 D-45470 Muelheim/Ruhr               #
                  #                      Germany                        #
                  #                                                     #
                  #                  All rights reserved                #
                  #                        -***-                        #
                  #######################################################


                         Program Version 4.2.1 -  RELEASE  -


 With contributions from (in alphabetic order):
   Daniel Aravena         : Magnetic Suceptibility
   Michael Atanasov       : Ab Initio Ligand Field Theory (pilot matlab implementation)
   Alexander A. Auer      : GIAO ZORA, VPT2
   Ute Becker             : Parallelization
   Giovanni Bistoni       : ED, misc. LED, open-shell LED, HFLD
   Martin Brehm           : Molecular dynamics
   Dmytro Bykov           : SCF Hessian
   Vijay G. Chilkuri      : MRCI spin determinant printing, contributions to CSF-ICE
   Dipayan Datta          : RHF DLPNO-CCSD density
   Achintya Kumar Dutta   : EOM-CC, STEOM-CC
   Dmitry Ganyushin       : Spin-Orbit,Spin-Spin,Magnetic field MRCI
   Miquel Garcia          : C-PCM Hessian, Gaussian charge scheme
   Yang Guo               : DLPNO-NEVPT2, CIM, IAO-localization
   Andreas Hansen         : Spin unrestricted coupled pair/coupled cluster methods
   Benjamin Helmich-Paris : CASSCF linear response (MC-RPA)
   Lee Huntington         : MR-EOM, pCC
   Robert Izsak           : Overlap fitted RIJCOSX, COSX-SCS-MP3, EOM
   Christian Kollmar      : KDIIS, OOCD, Brueckner-CCSD(T), CCSD density
   Simone Kossmann        : Meta GGA functionals, TD-DFT gradient, OOMP2, MP2 Hessian
   Martin Krupicka        : AUTO-CI
   Lucas Lang             : DCDCAS
   Dagmar Lenk            : GEPOL surface, SMD
   Dimitrios Liakos       : Extrapolation schemes; Compound Job, initial MDCI parallelization
   Dimitrios Manganas     : Further ROCIS development; embedding schemes
   Dimitrios Pantazis     : SARC Basis sets
   Taras Petrenko         : DFT Hessian,TD-DFT gradient, ASA, ECA, R-Raman, ABS, FL, XAS/XES, NRVS
   Peter Pinski           : DLPNO-MP2, DLPNO-MP2 Gradient
   Christoph Reimann      : Effective Core Potentials
   Marius Retegan         : Local ZFS, SOC
   Christoph Riplinger    : Optimizer, TS searches, QM/MM, DLPNO-CCSD(T), (RO)-DLPNO pert. Triples
   Tobias Risthaus        : Range-separated hybrids, TD-DFT gradient, RPA, STAB
   Michael Roemelt        : Original ROCIS implementation
   Masaaki Saitow         : Open-shell DLPNO-CCSD energy and density
   Barbara Sandhoefer     : DKH picture change effects
   Avijit Sen             : IP-ROCIS
   Kantharuban Sivalingam : CASSCF convergence, NEVPT2, FIC-MRCI
   Bernardo de Souza      : ESD, SOC TD-DFT
   Georgi Stoychev        : AutoAux, RI-MP2 NMR
   Willem Van den Heuvel  : Paramagnetic NMR
   Boris Wezisla          : Elementary symmetry handling
   Frank Wennmohs         : Technical directorship


 We gratefully acknowledge several colleagues who have allowed us to
 interface, adapt or use parts of their codes:
   Stefan Grimme, W. Hujo, H. Kruse,             : VdW corrections, initial TS optimization,
                  C. Bannwarth                     DFT functionals, gCP, sTDA/sTD-DF
   Ed Valeev, F. Pavosevic, A. Kumar             : LibInt (2-el integral package), F12 methods
   Garnet Chan, S. Sharma, J. Yang, R. Olivares  : DMRG
   Ulf Ekstrom                                   : XCFun DFT Library
   Mihaly Kallay                                 : mrcc  (arbitrary order and MRCC methods)
   Andreas Klamt, Michael Diedenhofen            : otool_cosmo (COSMO solvation model)
   Jiri Pittner, Ondrej Demel                    : Mk-CCSD
   Frank Weinhold                                : gennbo (NPA and NBO analysis)
   Christopher J. Cramer and Donald G. Truhlar   : smd solvation model
   Lars Goerigk                                  : TD-DFT with DH, B97 family of functionals
   V. Asgeirsson, H. Jonsson                     : NEB implementation
   FAccTs GmbH                                   : IRC, NEB, NEB-TS, Multilevel, MM, QM/MM, CI optimization
   S Lehtola, MJT Oliveira, MAL Marques          : LibXC Library


 Your calculation uses the libint2 library for the computation of 2-el integrals
 For citations please refer to: http://libint.valeyev.net

 Your ORCA version has been built with support for libXC version: 4.2.3
 For citations please refer to: https://tddft.org/programs/libxc/

 This ORCA versions uses:
   CBLAS   interface :  Fast vector & matrix operations
   LAPACKE interface :  Fast linear algebra routines
   SCALAPACK package :  Parallel linear algebra routines


Your calculation utilizes the atom-pairwise dispersion correction
with the Becke-Johnson damping scheme (D3BJ)
Cite in your paper:
S.Grimme, S.Ehrlich, L.Goerigk, J Comput Chem, (2011), 32, 1456–1465 
S.Grimme, J.Antony, S.Ehrlich and H.Krieg, J.Chem.Phys., 132, (2010), 154104 
   

----- Orbital basis set information -----
Your calculation utilizes the basis: def2-SV(P)
   F. Weigend and R. Ahlrichs, Phys. Chem. Chem. Phys. 7, 3297 (2005).

----- AuxJ basis set information -----
Your calculation utilizes the auxiliary basis: def2/J
   F. Weigend, Phys. Chem. Chem. Phys. 8, 1057 (2006).

================================================================================
                                        WARNINGS
                       Please study these warnings very carefully!
================================================================================


WARNING: Geometry Optimization
  ===> : Switching off AutoStart
         For restart on a previous wavefunction, please use MOREAD

INFO   : the flag for use of LIBINT has been found!

================================================================================
                                       INPUT FILE
================================================================================
NAME = orca1.inp
|  1> ! UKS B3LYP def2-SV(P) def2/J D3BJ Opt
|  2> %scf Convergence VeryTight
|  3> SmearTemp 2000
|  4> maxiter 500
|  5> end
|  6> *xyz 0 1
|  7> C -2.540029 0.117701 0.60488
|  8> C -1.733502 0.210777 -0.641145
|  9> C -0.54708 -0.677806 -0.71816
| 10> C 0.504362 -0.428732 0.321548
| 11> C 1.38086 0.767354 0.006752
| 12> C 2.851043 0.413004 0.202311
| 13> H -1.994268 -0.188211 1.505099
| 14> H -3.422452 -0.566955 0.528956
| 15> H -2.981078 1.125505 0.793476
| 16> H -1.390648 1.252031 -0.865209
| 17> H -2.405122 -0.063372 -1.493413
| 18> H -0.063284 -0.501521 -1.711617
| 19> H -0.877434 -1.725373 -0.611731
| 20> H 0.107924 -0.349445 1.347258
| 21> H 1.182291 -1.320565 0.304745
| 22> H 1.108567 1.597272 0.707087
| 23> H 1.179617 1.145825 -1.020189
| 24> H 3.100747 0.683368 1.24213
| 25> H 3.043088 -0.66867 -0.013797
| 26> H 3.496399 1.010104 -0.488982
| 27> *
| 28> 
| 29>                          ****END OF INPUT****
================================================================================

                       *****************************
                       * Geometry Optimization Run *
                       *****************************

Geometry optimization settings:
Update method            Update   .... BFGS
Choice of coordinates    CoordSys .... Z-matrix Internals
Initial Hessian          InHess   .... Almoef's Model

Convergence Tolerances:
Energy Change            TolE     ....  5.0000e-06 Eh
Max. Gradient            TolMAXG  ....  3.0000e-04 Eh/bohr
RMS Gradient             TolRMSG  ....  1.0000e-04 Eh/bohr
Max. Displacement        TolMAXD  ....  4.0000e-03 bohr
RMS Displacement         TolRMSD  ....  2.0000e-03 bohr
Strict Convergence                ....  False
------------------------------------------------------------------------------
                        ORCA OPTIMIZATION COORDINATE SETUP
------------------------------------------------------------------------------

The optimization will be done in new redundant internal coordinates
Making redundant internal coordinates   ...  (new redundants) done
Evaluating the initial hessian          ...  (Almloef) done
Evaluating the coordinates              ...  done
Calculating the B-matrix                .... done
Calculating the G-matrix                .... done
Diagonalizing the G-matrix              .... done
Small eigenvalue found = 2.114e-02
Small eigenvalue found = 2.666e-02
The first mode is                       ....   46
The number of degrees of freedom        ....   54

    -----------------------------------------------------------------
                    Redundant Internal Coordinates


    -----------------------------------------------------------------
         Definition                    Initial Value    Approx d2E/dq
    -----------------------------------------------------------------
      1. B(C   1,C   0)                  1.4872         0.437202   
      2. B(C   2,C   1)                  1.4843         0.441885   
      3. B(C   3,C   2)                  1.4995         0.417836   
      4. B(C   4,C   3)                  1.5159         0.393428   
      5. B(C   5,C   4)                  1.5249         0.380674   
      6. B(H   6,C   0)                  1.0963         0.351886   
      7. B(H   7,C   0)                  1.1195         0.323164   
      8. B(H   8,C   0)                  1.1161         0.327132   
      9. B(H   9,C   1)                  1.1189         0.323815   
     10. B(H  10,C   1)                  1.1192         0.323481   
     11. B(H  11,C   2)                  1.1190         0.323746   
     12. B(H  12,C   2)                  1.1036         0.342594   
     13. B(H  13,C   3)                  1.1025         0.343924   
     14. B(H  14,C   3)                  1.1204         0.322081   
     15. B(H  15,C   4)                  1.1195         0.323064   
     16. B(H  16,C   4)                  1.1128         0.331155   
     17. B(H  17,C   5)                  1.1030         0.343271   
     18. B(H  18,C   5)                  1.1196         0.322945   
     19. B(H  19,C   5)                  1.1184         0.324381   
     20. A(H   7,C   0,H   8)          104.6082         0.281721   
     21. A(C   1,C   0,H   7)          114.1382         0.326946   
     22. A(C   1,C   0,H   6)          115.8159         0.331576   
     23. A(H   6,C   0,H   7)          106.1080         0.284930   
     24. A(H   6,C   0,H   8)          108.0550         0.285472   
     25. A(C   1,C   0,H   8)          107.4192         0.327604   
     26. A(C   2,C   1,H  10)          107.0683         0.327574   
     27. A(C   0,C   1,H  10)          107.2923         0.326999   
     28. A(C   2,C   1,H   9)          107.5654         0.327629   
     29. A(C   0,C   1,H   9)          113.0912         0.327054   
     30. A(H   9,C   1,H  10)          105.0308         0.281320   
     31. A(C   0,C   1,C   2)          116.0714         0.384307   
     32. A(H  11,C   2,H  12)          111.3829         0.283826   
     33. A(C   1,C   2,C   3)          115.1543         0.381295   
     34. A(C   3,C   2,H  11)          106.6339         0.324615   
     35. A(C   1,C   2,H  11)          107.2983         0.327618   
     36. A(C   1,C   2,H  12)          108.9050         0.330694   
     37. A(C   3,C   2,H  12)          107.5000         0.327652   
     38. A(C   2,C   3,C   4)          113.1102         0.373711   
     39. A(H  13,C   3,H  14)          106.7847         0.283769   
     40. A(C   4,C   3,H  14)          105.9677         0.321155   
     41. A(C   2,C   3,H  14)          106.3595         0.324340   
     42. A(C   4,C   3,H  13)          110.1428         0.324629   
     43. A(C   2,C   3,H  13)          113.8833         0.327861   
     44. A(H  15,C   4,H  16)          106.3307         0.282242   
     45. A(C   5,C   4,H  16)          111.8229         0.320884   
     46. A(C   3,C   4,H  16)          110.8195         0.322620   
     47. A(C   5,C   4,H  15)          109.0585         0.319589   
     48. A(C   3,C   4,H  15)          108.3229         0.321316   
     49. A(C   3,C   4,C   5)          110.3331         0.367771   
     50. A(C   4,C   5,H  17)          106.3915         0.322777   
     51. A(H  18,C   5,H  19)          107.3071         0.281324   
     52. A(H  17,C   5,H  19)          108.7347         0.283999   
     53. A(C   4,C   5,H  19)          110.6705         0.319802   
     54. A(H  17,C   5,H  18)          112.3289         0.283803   
     55. A(C   4,C   5,H  18)          111.4148         0.319570   
     56. D(H   9,C   1,C   0,H   8)     23.8480         0.015104   
     57. D(H  10,C   1,C   0,H   7)     23.9908         0.015104   
     58. D(H   9,C   1,C   0,H   7)    139.3317         0.015104   
     59. D(H  10,C   1,C   0,H   8)    -91.4929         0.015104   
     60. D(H   9,C   1,C   0,H   6)    -96.9904         0.015104   
     61. D(C   2,C   1,C   0,H   8)    148.8670         0.015104   
     62. D(C   2,C   1,C   0,H   7)    -95.6492         0.015104   
     63. D(C   2,C   1,C   0,H   6)     28.0287         0.015104   
     64. D(H  10,C   1,C   0,H   6)    147.6687         0.015104   
     65. D(H  11,C   2,C   1,H   9)    -53.0934         0.015427   
     66. D(C   3,C   2,C   1,H  10)    177.8692         0.015427   
     67. D(C   3,C   2,C   1,C   0)    -62.3694         0.015427   
     68. D(H  11,C   2,C   1,C   0)    179.1100         0.015427   
     69. D(H  11,C   2,C   1,H  10)     59.3486         0.015427   
     70. D(H  12,C   2,C   1,H  10)    -61.3353         0.015427   
     71. D(H  12,C   2,C   1,H   9)   -173.7773         0.015427   
     72. D(H  12,C   2,C   1,C   0)     58.4261         0.015427   
     73. D(C   3,C   2,C   1,H   9)     65.4271         0.015427   
     74. D(H  14,C   3,C   2,H  11)    -75.5023         0.013817   
     75. D(H  14,C   3,C   2,C   1)    165.6071         0.013817   
     76. D(H  13,C   3,C   2,H  12)    -73.2827         0.013817   
     77. D(H  13,C   3,C   2,H  11)    167.1671         0.013817   
     78. D(H  13,C   3,C   2,C   1)     48.2764         0.013817   
     79. D(C   4,C   3,C   2,H  11)     40.4096         0.013817   
     80. D(C   4,C   3,C   2,H  12)    159.9599         0.013817   
     81. D(H  14,C   3,C   2,H  12)     44.0480         0.013817   
     82. D(C   4,C   3,C   2,C   1)    -78.4811         0.013817   
     83. D(H  15,C   4,C   3,C   2)    107.5263         0.012297   
     84. D(C   5,C   4,C   3,H  14)    -17.0184         0.012297   
     85. D(C   5,C   4,C   3,H  13)     98.1251         0.012297   
     86. D(C   5,C   4,C   3,C   2)   -133.1628         0.012297   
     87. D(H  16,C   4,C   3,H  14)    107.3871         0.012297   
     88. D(H  16,C   4,C   3,H  13)   -137.4694         0.012297   
     89. D(H  16,C   4,C   3,C   2)     -8.7573         0.012297   
     90. D(H  15,C   4,C   3,H  14)   -136.3293         0.012297   
     91. D(H  15,C   4,C   3,H  13)    -21.1858         0.012297   
     92. D(H  19,C   5,C   4,H  16)     26.2745         0.011547   
     93. D(H  19,C   5,C   4,H  15)    -91.0345         0.011547   
     94. D(H  19,C   5,C   4,C   3)    150.1019         0.011547   
     95. D(H  18,C   5,C   4,H  16)    -93.0337         0.011547   
     96. D(H  18,C   5,C   4,H  15)    149.6572         0.011547   
     97. D(H  18,C   5,C   4,C   3)     30.7937         0.011547   
     98. D(H  17,C   5,C   4,H  16)    144.2314         0.011547   
     99. D(H  17,C   5,C   4,H  15)     26.9224         0.011547   
    100. D(H  17,C   5,C   4,C   3)    -91.9412         0.011547   
    -----------------------------------------------------------------

Number of atoms                         .... 20
Number of degrees of freedom            .... 100

Time needed for optimization step       :     3.39 sec

         *************************************************************
         *                GEOMETRY OPTIMIZATION CYCLE   1            *
         *************************************************************
---------------------------------
CARTESIAN COORDINATES (ANGSTROEM)
---------------------------------
  C     -2.540029    0.117701    0.604880
  C     -1.733502    0.210777   -0.641145
  C     -0.547080   -0.677806   -0.718160
  C      0.504362   -0.428732    0.321548
  C      1.380860    0.767354    0.006752
  C      2.851043    0.413004    0.202311
  H     -1.994268   -0.188211    1.505099
  H     -3.422452   -0.566955    0.528956
  H     -2.981078    1.125505    0.793476
  H     -1.390648    1.252031   -0.865209
  H     -2.405122   -0.063372   -1.493413
  H     -0.063284   -0.501521   -1.711617
  H     -0.877434   -1.725373   -0.611731
  H      0.107924   -0.349445    1.347258
  H      1.182291   -1.320565    0.304745
  H      1.108567    1.597272    0.707087
  H      1.179617    1.145825   -1.020189
  H      3.100747    0.683368    1.242130
  H      3.043088   -0.668670   -0.013797
  H      3.496399    1.010104   -0.488982

----------------------------
CARTESIAN COORDINATES (A.U.)
----------------------------
  NO LB      ZA    FRAG     MASS         X           Y           Z
   0 C     6.0000    0    12.011   -4.799959    0.222423    1.143058
   1 C     6.0000    0    12.011   -3.275844    0.398311   -1.211588
   2 C     6.0000    0    12.011   -1.033831   -1.280868   -1.357126
   3 C     6.0000    0    12.011    0.953106   -0.810186    0.607638
   4 C     6.0000    0    12.011    2.609447    1.450089    0.012759
   5 C     6.0000    0    12.011    5.387690    0.780464    0.382312
   6 H     1.0000    0     1.008   -3.768620   -0.355667    2.844225
   7 H     1.0000    0     1.008   -6.467497   -1.071390    0.999582
   8 H     1.0000    0     1.008   -5.633421    2.126896    1.499452
   9 H     1.0000    0     1.008   -2.627944    2.365996   -1.635008
  10 H     1.0000    0     1.008   -4.545022   -0.119756   -2.822142
  11 H     1.0000    0     1.008   -0.119589   -0.947737   -3.234487
  12 H     1.0000    0     1.008   -1.658110   -3.260482   -1.156004
  13 H     1.0000    0     1.008    0.203947   -0.660355    2.545949
  14 H     1.0000    0     1.008    2.234206   -2.495506    0.575885
  15 H     1.0000    0     1.008    2.094888    3.018407    1.336201
  16 H     1.0000    0     1.008    2.229153    2.165295   -1.927878
  17 H     1.0000    0     1.008    5.859563    1.291378    2.347286
  18 H     1.0000    0     1.008    5.750603   -1.263603   -0.026073
  19 H     1.0000    0     1.008    6.607237    1.908820   -0.924042

--------------------------------
INTERNAL COORDINATES (ANGSTROEM)
--------------------------------
 C      0   0   0     0.000000000000     0.00000000     0.00000000
 C      1   0   0     1.487187696335     0.00000000     0.00000000
 C      2   1   0     1.484287108412   116.07140548     0.00000000
 C      3   2   1     1.499520210635   115.15428989   297.63058112
 C      4   3   2     1.515904675438   113.11018500   281.51893779
 C      5   4   3     1.524875502613   110.33313297   226.83719485
 H      1   2   3     1.096280743617   115.81590560    28.02865197
 H      1   2   3     1.119459085023   114.13818100   264.35077884
 H      1   2   3     1.116136897532   107.41922929   148.86701671
 H      2   1   3     1.118911718559   113.09119209   234.98097040
 H      2   1   3     1.119192495697   107.29226560   119.64005417
 H      3   2   1     1.118969070926   107.29826716   179.11003811
 H      3   2   1     1.103565818991   108.90498595    58.42609808
 H      4   3   2     1.102511006890   113.88333636    48.27640074
 H      4   3   2     1.120373227875   106.35949268   165.60706380
 H      5   4   3     1.119542976753   108.32287878   107.52629898
 H      5   4   3     1.112810343397   110.81949916   351.24269757
 H      6   5   4     1.103028708998   106.39147661   268.05881608
 H      6   5   4     1.119643957678   111.41478023    30.79366269
 H      6   5   4     1.118435866997   110.67047459   150.10191124

---------------------------
INTERNAL COORDINATES (A.U.)
---------------------------
 C      0   0   0     0.000000000000     0.00000000     0.00000000
 C      1   0   0     2.810377455810     0.00000000     0.00000000
 C      2   1   0     2.804896139009   116.07140548     0.00000000
 C      3   2   1     2.833682530381   115.15428989   297.63058112
 C      4   3   2     2.864644681709   113.11018500   281.51893779
 C      5   4   3     2.881597088265   110.33313297   226.83719485
 H      1   2   3     2.071670371328   115.81590560    28.02865197
 H      1   2   3     2.115471088824   114.13818100   264.35077884
 H      1   2   3     2.109193064301   107.41922929   148.86701671
 H      2   1   3     2.114436716111   113.09119209   234.98097040
 H      2   1   3     2.114967308008   107.29226560   119.64005417
 H      3   2   1     2.114545096379   107.29826716   179.11003811
 H      3   2   1     2.085437168650   108.90498595    58.42609808
 H      4   3   2     2.083443862655   113.88333636    48.27640074
 H      4   3   2     2.117198568461   106.35949268   165.60706380
 H      5   4   3     2.115629621219   108.32287878   107.52629898
 H      5   4   3     2.102906788015   110.81949916   351.24269757
 H      6   5   4     2.084422177858   106.39147661   268.05881608
 H      6   5   4     2.115820447511   111.41478023    30.79366269
 H      6   5   4     2.113537486979   110.67047459   150.10191124

---------------------
BASIS SET INFORMATION
---------------------
There are 2 groups of distinct atoms

 Group   1 Type C   : 7s4p1d contracted to 3s2p1d pattern {511/31/1}
 Group   2 Type H   : 4s contracted to 2s pattern {31}

Atom   0C    basis set group =>   1
Atom   1C    basis set group =>   1
Atom   2C    basis set group =>   1
Atom   3C    basis set group =>   1
Atom   4C    basis set group =>   1
Atom   5C    basis set group =>   1
Atom   6H    basis set group =>   2
Atom   7H    basis set group =>   2
Atom   8H    basis set group =>   2
Atom   9H    basis set group =>   2
Atom  10H    basis set group =>   2
Atom  11H    basis set group =>   2
Atom  12H    basis set group =>   2
Atom  13H    basis set group =>   2
Atom  14H    basis set group =>   2
Atom  15H    basis set group =>   2
Atom  16H    basis set group =>   2
Atom  17H    basis set group =>   2
Atom  18H    basis set group =>   2
Atom  19H    basis set group =>   2
---------------------------------
AUXILIARY/J BASIS SET INFORMATION
---------------------------------
There are 2 groups of distinct atoms

 Group   1 Type C   : 12s5p4d2f1g contracted to 6s4p3d1f1g pattern {711111/2111/211/2/1}
 Group   2 Type H   : 5s2p1d contracted to 3s1p1d pattern {311/2/1}

Atom   0C    basis set group =>   1
Atom   1C    basis set group =>   1
Atom   2C    basis set group =>   1
Atom   3C    basis set group =>   1
Atom   4C    basis set group =>   1
Atom   5C    basis set group =>   1
Atom   6H    basis set group =>   2
Atom   7H    basis set group =>   2
Atom   8H    basis set group =>   2
Atom   9H    basis set group =>   2
Atom  10H    basis set group =>   2
Atom  11H    basis set group =>   2
Atom  12H    basis set group =>   2
Atom  13H    basis set group =>   2
Atom  14H    basis set group =>   2
Atom  15H    basis set group =>   2
Atom  16H    basis set group =>   2
Atom  17H    basis set group =>   2
Atom  18H    basis set group =>   2
Atom  19H    basis set group =>   2
------------------------------------------------------------------------------
                           ORCA GTO INTEGRAL CALCULATION
------------------------------------------------------------------------------

                         BASIS SET STATISTICS AND STARTUP INFO

 # of primitive gaussian shells          ...  128
 # of primitive gaussian functions       ...  200
 # of contracted shells                  ...   64
 # of contracted basis functions         ...  112
 Highest angular momentum                ...    2
 Maximum contraction depth               ...    5
 Integral package used                   ... LIBINT
 Integral threshhold            Thresh   ...  1.000e-12
 Primitive cut-off              TCut     ...  1.000e-14


------------------------------ INTEGRAL EVALUATION ----------------------------


 * One electron integrals 
 Pre-screening matrix                    ... done
 Shell pair data                         ... done (   0.001 sec)

-------------------------------------------------------------------------------
                                 ORCA SCF
-------------------------------------------------------------------------------

------------
SCF SETTINGS
------------
Hamiltonian:
 Density Functional     Method          .... DFT(GTOs)
 Exchange Functional    Exchange        .... B88
   X-Alpha parameter    XAlpha          ....  0.666667
   Becke's b parameter  XBeta           ....  0.004200
 Correlation Functional Correlation     .... LYP
 LDA part of GGA corr.  LDAOpt          .... VWN-5
 Gradients option       PostSCFGGA      .... off
 Hybrid DFT is turned on
   Fraction HF Exchange ScalHFX         ....  0.200000
   Scaling of DF-GGA-X  ScalDFX         ....  0.720000
   Scaling of DF-GGA-C  ScalDFC         ....  0.810000
   Scaling of DF-LDA-C  ScalLDAC        ....  1.000000
   Perturbative correction              ....  0.000000
   Density functional embedding theory  .... OFF
   NL short-range parameter             ....  4.800000


General Settings:
 Integral files         IntName         .... orca1
 Hartree-Fock type      HFTyp           .... UHF
 Total Charge           Charge          ....    0
 Multiplicity           Mult            ....    1
 Number of Electrons    NEL             ....   50
 Basis Dimension        Dim             ....  112
 Nuclear Repulsion      ENuc            ....    253.0373211202 Eh

Convergence Acceleration:
 DIIS                   CNVDIIS         .... on
   Start iteration      DIISMaxIt       ....    12
   Startup error        DIISStart       ....  0.200000
   # of expansion vecs  DIISMaxEq       ....     5
   Bias factor          DIISBfac        ....   1.050
   Max. coefficient     DIISMaxC        ....  10.000
 Newton-Raphson         CNVNR           .... off
 SOSCF                  CNVSOSCF        .... off
 Level Shifting         CNVShift        .... on
   Level shift para.    LevelShift      ....    0.2500
   Turn off err/grad.   ShiftErr        ....    0.0010
 Zerner damping         CNVZerner       .... off
 Static damping         CNVDamp         .... on
   Fraction old density DampFac         ....    0.7000
   Max. Damping (<1)    DampMax         ....    0.9800
   Min. Damping (>=0)   DampMin         ....    0.0000
   Turn off err/grad.   DampErr         ....    0.1000
 Fernandez-Rico         CNVRico         .... off

SCF Procedure:
 Maximum # iterations   MaxIter         ....   500
 SCF integral mode      SCFMode         .... Direct
   Integral package                     .... LIBINT
 Reset frequency        DirectResetFreq ....    20
 Integral Threshold     Thresh          ....  1.000e-12 Eh
 Primitive CutOff       TCut            ....  1.000e-14 Eh

Convergence Tolerance:
 Convergence Check Mode ConvCheckMode   .... Total+1el-Energy
 Convergence forced     ConvForced      .... 0
 Energy Change          TolE            ....  1.000e-09 Eh
 1-El. energy change                    ....  1.000e-06 Eh
 DIIS Error             TolErr          ....  1.000e-08


Diagonalization of the overlap matrix:
Smallest eigenvalue                        ... 1.884e-03
Time for diagonalization                   ...    0.002 sec
Threshold for overlap eigenvalues          ... 1.000e-08
Number of eigenvalues below threshold      ... 0
Time for construction of square roots      ...    2.359 sec
Total time needed                          ...    2.360 sec

-------------------
DFT GRID GENERATION
-------------------

General Integration Accuracy     IntAcc      ...  4.340
Radial Grid Type                 RadialGrid  ... Gauss-Chebyshev
Angular Grid (max. acc.)         AngularGrid ... Lebedev-110
Angular grid pruning method      GridPruning ... 3 (G Style)
Weight generation scheme         WeightScheme... Becke
Basis function cutoff            BFCut       ...    1.0000e-12
Integration weight cutoff        WCut        ...    1.0000e-14
Grids for H and He will be reduced by one unit

# of grid points (after initial pruning)     ...  21052 (   0.0 sec)
# of grid points (after weights+screening)   ...  19240 (   0.0 sec)
nearest neighbour list constructed           ...    0.0 sec
Grid point re-assignment to atoms done       ...    0.0 sec
Grid point division into batches done        ...    0.0 sec
Reduced shell lists constructed in    0.1 sec

Total number of grid points                  ...    19240
Total number of batches                      ...      310
Average number of points per batch           ...       62
Average number of grid points per atom       ...      962
Average number of shells per batch           ...    51.55 (80.54%)
Average number of basis functions per batch  ...    89.30 (79.73%)
Average number of large shells per batch     ...    42.37 (82.19%)
Average number of large basis fcns per batch ...    73.00 (81.75%)
Maximum spatial batch extension              ...  20.31, 25.60, 20.99 au
Average spatial batch extension              ...   3.45,  3.75,  3.83 au

Time for grid setup =    2.281 sec

------------------------------
INITIAL GUESS: MODEL POTENTIAL
------------------------------
Loading Hartree-Fock densities                     ... done
Calculating cut-offs                               ... done
Setting up the integral package                    ... done
Initializing the effective Hamiltonian             ... done
Starting the Coulomb interaction                   ... done (   0.1 sec)
Reading the grid                                   ... done
Mapping shells                                     ... done
Starting the XC term evaluation                    ... done (   0.2 sec)
  promolecular density results
     # of electrons  =     49.987634001
     EX              =    -35.011783144
     EC              =     -1.577162715
     EX+EC           =    -36.588945859
Transforming the Hamiltonian                       ... done (   0.0 sec)
Diagonalizing the Hamiltonian                      ... done (   0.0 sec)
Back transforming the eigenvectors                 ... done (   0.0 sec)
Now organizing SCF variables                       ... done
                      ------------------
                      INITIAL GUESS DONE (   2.6 sec)
                      ------------------
--------------
SCF ITERATIONS
--------------
ITER       Energy         Delta-E        Max-DP      RMS-DP      [F,P]     Damp
               ***  Starting incremental Fock matrix formation  ***
  0   -236.4213830042   0.000000000000 0.04181042  0.00182123  0.1779622 0.7000
  1   -236.5402121211  -0.118829116877 0.02559773  0.00129507  0.0913254 0.7000
                               ***Turning on DIIS***
  2   -236.5867016264  -0.046489505329 0.03509577  0.00210998  0.0331038 0.0000
  3   -236.6498239642  -0.063122337740 0.01693302  0.00087752  0.0504502 0.0000
  4   -236.6709343982  -0.021110434018 0.00345226  0.00026194  0.0112024 0.0000
  5   -236.6719587505  -0.001024352300 0.00121335  0.00009229  0.0020345 0.0000
  6   -236.6720183006  -0.000059550109 0.00061409  0.00004687  0.0008719 0.0000
  7   -236.6720233009  -0.000005000319 0.00022978  0.00000497  0.0004036 0.0000
  8   -236.6720236883  -0.000000387336 0.00003021  0.00000121  0.0000447 0.0000
  9   -236.6720236995  -0.000000011279 0.00001189  0.00000045  0.0000174 0.0000
 10   -236.6720237017  -0.000000002127 0.00000367  0.00000014  0.0000053 0.0000
 11   -236.6720237019  -0.000000000222 0.00000070  0.00000005  0.0000018 0.0000
 12   -236.6720237019   0.000000000002 0.00000032  0.00000001  0.0000005 0.0000
 13   -236.6720237019   0.000000000021 0.00000011  0.00000000  0.0000002 0.0000
                 **** Energy Check signals convergence ****

 Fermi smearing  (ALPHA): E(HOMO(Eh)) = -0.297564 MUE = -0.122091 gap=   9.550 eV
 Fermi smearing   (BETA): E(HOMO(Eh)) = -0.297564 MUE = -0.122091 gap=   9.550 eV

N_FOD(alpha) =  0.000000
 N_FOD(beta) =  0.000000
       N_FOD =  0.000000

               *****************************************************
               *                     SUCCESS                       *
               *           SCF CONVERGED AFTER  14 CYCLES          *
               *****************************************************

Setting up the final grid:

General Integration Accuracy     IntAcc      ...  4.670
Radial Grid Type                 RadialGrid  ... Gauss-Chebyshev
Angular Grid (max. acc.)         AngularGrid ... Lebedev-302
Angular grid pruning method      GridPruning ... 3 (G Style)
Weight generation scheme         WeightScheme... Becke
Basis function cutoff            BFCut       ...    1.0000e-12
Integration weight cutoff        WCut        ...    1.0000e-14
Grids for H and He will be reduced by one unit

# of grid points (after initial pruning)     ...  84788 (   0.0 sec)
# of grid points (after weights+screening)   ...  76296 (   0.2 sec)
nearest neighbour list constructed           ...    0.0 sec
Grid point re-assignment to atoms done       ...    0.0 sec
Grid point division into batches done        ...    0.2 sec
Reduced shell lists constructed in    0.6 sec

Total number of grid points                  ...    76296
Total number of batches                      ...     1204
Average number of points per batch           ...       63
Average number of grid points per atom       ...     3815
Average number of shells per batch           ...    48.17 (75.26%)
Average number of basis functions per batch  ...    83.02 (74.12%)
Average number of large shells per batch     ...    38.86 (80.68%)
Average number of large basis fcns per batch ...    66.49 (80.09%)
Maximum spatial batch extension              ...  18.61, 18.20, 17.32 au
Average spatial batch extension              ...   2.31,  2.41,  2.43 au

Final grid set up in    1.9 sec
Final integration                            ... done (  18.0 sec)
Change in XC energy                          ...    -0.000051394
Integrated number of electrons               ...    50.000110655
Previous integrated no of electrons          ...    49.998020674

----------------
TOTAL SCF ENERGY
----------------

Total Energy       :         -236.67207510 Eh           -6440.17458 eV

Components:
Nuclear Repulsion  :          253.03732112 Eh            6885.49556 eV
Electronic Energy  :         -489.70939622 Eh          -13325.67014 eV
One Electron Energy:         -817.85734558 Eh          -22255.02980 eV
Two Electron Energy:          328.14794936 Eh            8929.35966 eV

Virial components:
Potential Energy   :         -470.92312711 Eh          -12814.46976 eV
Kinetic Energy     :          234.25105201 Eh            6374.29519 eV
Virial Ratio       :            2.01033516


DFT components:
N(Alpha)           :       25.000055327710 electrons
N(Beta)            :       25.000055327710 electrons
N(Total)           :       50.000110655419 electrons
E(X)               :      -28.517929682139 Eh       
E(C)               :       -1.871774364722 Eh       
E(XC)              :      -30.389704046861 Eh       
DFET-embed. en.    :        0.000000000000 Eh       

---------------
SCF CONVERGENCE
---------------

  Last Energy change         ...   -2.2652e-11  Tolerance :   1.0000e-09
  Last MAX-Density change    ...    3.0626e-08  Tolerance :   1.0000e-08
  Last RMS-Density change    ...    7.5734e-10  Tolerance :   1.0000e-09
  Last DIIS Error            ...    5.7110e-08  Tolerance :   1.0000e-08

             **** THE GBW FILE WAS UPDATED (orca1.gbw) ****
             **** DENSITY FILE WAS UPDATED (orca1.scfp) ****
             **** ENERGY FILE WAS UPDATED (orca1.en.tmp) ****
             **** THE GBW FILE WAS UPDATED (orca1.gbw) ****
             **** DENSITY FILE WAS UPDATED (orca1.scfp) ****
----------------
ORBITAL ENERGIES
----------------
                 SPIN UP ORBITALS
  NO   OCC          E(Eh)            E(eV) 
   0   1.0000     -10.168784      -276.7067 
   1   1.0000     -10.166665      -276.6490 
   2   1.0000     -10.166313      -276.6394 
   3   1.0000     -10.163939      -276.5748 
   4   1.0000     -10.163197      -276.5546 
   5   1.0000     -10.162504      -276.5358 
   6   1.0000      -0.806197       -21.9377 
   7   1.0000      -0.758741       -20.6464 
   8   1.0000      -0.695720       -18.9315 
   9   1.0000      -0.632679       -17.2161 
  10   1.0000      -0.584043       -15.8926 
  11   1.0000      -0.536758       -14.6059 
  12   1.0000      -0.474672       -12.9165 
  13   1.0000      -0.460292       -12.5252 
  14   1.0000      -0.430950       -11.7267 
  15   1.0000      -0.417706       -11.3664 
  16   1.0000      -0.403807       -10.9882 
  17   1.0000      -0.386066       -10.5054 
  18   1.0000      -0.370324       -10.0770 
  19   1.0000      -0.347552        -9.4574 
  20   1.0000      -0.341563        -9.2944 
  21   1.0000      -0.325406        -8.8547 
  22   1.0000      -0.314436        -8.5563 
  23   1.0000      -0.305689        -8.3182 
  24   1.0000      -0.297564        -8.0971 
  25   0.0000       0.053382         1.4526 
  26   0.0000       0.071797         1.9537 
  27   0.0000       0.075145         2.0448 
  28   0.0000       0.082411         2.2425 
  29   0.0000       0.105053         2.8586 
  30   0.0000       0.112487         3.0609 
  31   0.0000       0.118982         3.2377 
  32   0.0000       0.135749         3.6939 
  33   0.0000       0.143781         3.9125 
  34   0.0000       0.155462         4.2303 
  35   0.0000       0.176535         4.8038 
  36   0.0000       0.180854         4.9213 
  37   0.0000       0.192433         5.2364 
  38   0.0000       0.197322         5.3694 
  39   0.0000       0.233394         6.3510 
  40   0.0000       0.249282         6.7833 
  41   0.0000       0.267257         7.2724 
  42   0.0000       0.276393         7.5210 
  43   0.0000       0.323531         8.8037 
  44   0.0000       0.403551        10.9812 
  45   0.0000       0.411123        11.1872 
  46   0.0000       0.436141        11.8680 
  47   0.0000       0.452629        12.3167 
  48   0.0000       0.458639        12.4802 
  49   0.0000       0.489852        13.3296 
  50   0.0000       0.531033        14.4502 
  51   0.0000       0.542867        14.7722 
  52   0.0000       0.555661        15.1203 
  53   0.0000       0.608550        16.5595 
  54   0.0000       0.617825        16.8119 
  55   0.0000       0.639765        17.4089 
  56   0.0000       0.648385        17.6434 
  57   0.0000       0.667609        18.1666 
  58   0.0000       0.670466        18.2443 
  59   0.0000       0.678504        18.4630 
  60   0.0000       0.690137        18.7796 
  61   0.0000       0.693410        18.8686 
  62   0.0000       0.698347        19.0030 
  63   0.0000       0.701082        19.0774 
  64   0.0000       0.708360        19.2755 
  65   0.0000       0.710708        19.3393 
  66   0.0000       0.717367        19.5206 
  67   0.0000       0.723247        19.6806 
  68   0.0000       0.728953        19.8358 
  69   0.0000       0.735576        20.0160 
  70   0.0000       0.744429        20.2570 
  71   0.0000       0.758431        20.6380 
  72   0.0000       0.771972        21.0064 
  73   0.0000       0.790891        21.5212 
  74   0.0000       0.799225        21.7480 
  75   0.0000       0.857675        23.3385 
  76   0.0000       0.901469        24.5302 
  77   0.0000       0.945398        25.7256 
  78   0.0000       0.998287        27.1648 
  79   0.0000       1.053277        28.6611 
  80   0.0000       1.093917        29.7670 
  81   0.0000       1.192531        32.4504 
  82   0.0000       1.399489        38.0820 
  83   0.0000       1.423739        38.7419 
  84   0.0000       1.581824        43.0436 
  85   0.0000       1.637906        44.5697 
  86   0.0000       1.717768        46.7428 
  87   0.0000       1.784963        48.5713 
  88   0.0000       1.826118        49.6912 
  89   0.0000       1.858540        50.5734 
  90   0.0000       1.862283        50.6753 
  91   0.0000       1.933428        52.6113 
  92   0.0000       1.950855        53.0855 
  93   0.0000       1.980761        53.8993 
  94   0.0000       1.996722        54.3336 
  95   0.0000       2.037207        55.4352 
  96   0.0000       2.052975        55.8643 
  97   0.0000       2.098774        57.1105 
  98   0.0000       2.134927        58.0943 
  99   0.0000       2.155296        58.6486 
 100   0.0000       2.191319        59.6288 
 101   0.0000       2.263944        61.6050 
 102   0.0000       2.293856        62.4190 
 103   0.0000       2.299251        62.5658 
 104   0.0000       2.340458        63.6871 
 105   0.0000       2.408821        65.5473 
 106   0.0000       2.477364        67.4125 
 107   0.0000       2.518684        68.5369 
 108   0.0000       2.621681        71.3396 
 109   0.0000       2.684281        73.0430 
 110   0.0000       2.707544        73.6760 
 111   0.0000       2.751444        74.8706 

                 SPIN DOWN ORBITALS
  NO   OCC          E(Eh)            E(eV) 
   0   1.0000     -10.168784      -276.7067 
   1   1.0000     -10.166665      -276.6490 
   2   1.0000     -10.166313      -276.6394 
   3   1.0000     -10.163939      -276.5748 
   4   1.0000     -10.163197      -276.5546 
   5   1.0000     -10.162504      -276.5358 
   6   1.0000      -0.806197       -21.9377 
   7   1.0000      -0.758741       -20.6464 
   8   1.0000      -0.695720       -18.9315 
   9   1.0000      -0.632679       -17.2161 
  10   1.0000      -0.584043       -15.8926 
  11   1.0000      -0.536758       -14.6059 
  12   1.0000      -0.474672       -12.9165 
  13   1.0000      -0.460292       -12.5252 
  14   1.0000      -0.430950       -11.7267 
  15   1.0000      -0.417706       -11.3664 
  16   1.0000      -0.403807       -10.9882 
  17   1.0000      -0.386066       -10.5054 
  18   1.0000      -0.370324       -10.0770 
  19   1.0000      -0.347552        -9.4574 
  20   1.0000      -0.341563        -9.2944 
  21   1.0000      -0.325406        -8.8547 
  22   1.0000      -0.314436        -8.5563 
  23   1.0000      -0.305689        -8.3182 
  24   1.0000      -0.297564        -8.0971 
  25   0.0000       0.053382         1.4526 
  26   0.0000       0.071797         1.9537 
  27   0.0000       0.075145         2.0448 
  28   0.0000       0.082411         2.2425 
  29   0.0000       0.105053         2.8586 
  30   0.0000       0.112487         3.0609 
  31   0.0000       0.118982         3.2377 
  32   0.0000       0.135749         3.6939 
  33   0.0000       0.143781         3.9125 
  34   0.0000       0.155462         4.2303 
  35   0.0000       0.176535         4.8038 
  36   0.0000       0.180854         4.9213 
  37   0.0000       0.192433         5.2364 
  38   0.0000       0.197322         5.3694 
  39   0.0000       0.233394         6.3510 
  40   0.0000       0.249282         6.7833 
  41   0.0000       0.267257         7.2724 
  42   0.0000       0.276393         7.5210 
  43   0.0000       0.323531         8.8037 
  44   0.0000       0.403551        10.9812 
  45   0.0000       0.411123        11.1872 
  46   0.0000       0.436141        11.8680 
  47   0.0000       0.452629        12.3167 
  48   0.0000       0.458639        12.4802 
  49   0.0000       0.489852        13.3296 
  50   0.0000       0.531033        14.4502 
  51   0.0000       0.542867        14.7722 
  52   0.0000       0.555661        15.1203 
  53   0.0000       0.608550        16.5595 
  54   0.0000       0.617825        16.8119 
  55   0.0000       0.639765        17.4089 
  56   0.0000       0.648385        17.6434 
  57   0.0000       0.667609        18.1666 
  58   0.0000       0.670466        18.2443 
  59   0.0000       0.678504        18.4630 
  60   0.0000       0.690137        18.7796 
  61   0.0000       0.693410        18.8686 
  62   0.0000       0.698347        19.0030 
  63   0.0000       0.701082        19.0774 
  64   0.0000       0.708360        19.2755 
  65   0.0000       0.710708        19.3393 
  66   0.0000       0.717367        19.5206 
  67   0.0000       0.723247        19.6806 
  68   0.0000       0.728953        19.8358 
  69   0.0000       0.735576        20.0160 
  70   0.0000       0.744429        20.2570 
  71   0.0000       0.758431        20.6380 
  72   0.0000       0.771972        21.0064 
  73   0.0000       0.790891        21.5212 
  74   0.0000       0.799225        21.7480 
  75   0.0000       0.857675        23.3385 
  76   0.0000       0.901469        24.5302 
  77   0.0000       0.945398        25.7256 
  78   0.0000       0.998287        27.1648 
  79   0.0000       1.053277        28.6611 
  80   0.0000       1.093917        29.7670 
  81   0.0000       1.192531        32.4504 
  82   0.0000       1.399489        38.0820 
  83   0.0000       1.423739        38.7419 
  84   0.0000       1.581824        43.0436 
  85   0.0000       1.637906        44.5697 
  86   0.0000       1.717768        46.7428 
  87   0.0000       1.784963        48.5713 
  88   0.0000       1.826118        49.6912 
  89   0.0000       1.858540        50.5734 
  90   0.0000       1.862283        50.6753 
  91   0.0000       1.933428        52.6113 
  92   0.0000       1.950855        53.0855 
  93   0.0000       1.980761        53.8993 
  94   0.0000       1.996722        54.3336 
  95   0.0000       2.037207        55.4352 
  96   0.0000       2.052975        55.8643 
  97   0.0000       2.098774        57.1105 
  98   0.0000       2.134927        58.0943 
  99   0.0000       2.155296        58.6486 
 100   0.0000       2.191319        59.6288 
 101   0.0000       2.263944        61.6050 
 102   0.0000       2.293856        62.4190 
 103   0.0000       2.299251        62.5658 
 104   0.0000       2.340458        63.6871 
 105   0.0000       2.408821        65.5473 
 106   0.0000       2.477364        67.4125 
 107   0.0000       2.518684        68.5369 
 108   0.0000       2.621681        71.3396 
 109   0.0000       2.684281        73.0430 
 110   0.0000       2.707544        73.6760 
 111   0.0000       2.751444        74.8706 

                    ********************************
                    * MULLIKEN POPULATION ANALYSIS *
                    ********************************

------------------------------------------
FOD BASED MULLIKEN REDUCED ORBITAL CHARGES
------------------------------------------
  0 C s       :    -0.000000  s :    -0.000000
      pz      :     0.000000  p :     0.000000
      px      :     0.000000
      py      :     0.000000
      dz2     :     0.000000  d :     0.000000
      dxz     :     0.000000
      dyz     :     0.000000
      dx2y2   :     0.000000
      dxy     :     0.000000
  1 C s       :    -0.000000  s :    -0.000000
      pz      :     0.000000  p :     0.000000
      px      :     0.000000
      py      :     0.000000
      dz2     :     0.000000  d :     0.000000
      dxz     :     0.000000
      dyz     :     0.000000
      dx2y2   :     0.000000
      dxy     :     0.000000
  2 C s       :    -0.000000  s :    -0.000000
      pz      :     0.000000  p :     0.000000
      px      :     0.000000
      py      :     0.000000
      dz2     :     0.000000  d :     0.000000
      dxz     :     0.000000
      dyz     :     0.000000
      dx2y2   :     0.000000
      dxy     :     0.000000
  3 C s       :    -0.000000  s :    -0.000000
      pz      :     0.000000  p :     0.000000
      px      :     0.000000
      py      :     0.000000
      dz2     :     0.000000  d :     0.000000
      dxz     :     0.000000
      dyz     :     0.000000
      dx2y2   :     0.000000
      dxy     :     0.000000
  4 C s       :    -0.000000  s :    -0.000000
      pz      :     0.000000  p :     0.000000
      px      :     0.000000
      py      :     0.000000
      dz2     :     0.000000  d :     0.000000
      dxz     :     0.000000
      dyz     :     0.000000
      dx2y2   :     0.000000
      dxy     :     0.000000
  5 C s       :    -0.000000  s :    -0.000000
      pz      :     0.000000  p :     0.000000
      px      :     0.000000
      py      :     0.000000
      dz2     :     0.000000  d :     0.000000
      dxz     :     0.000000
      dyz     :     0.000000
      dx2y2   :     0.000000
      dxy     :     0.000000
  6 H s       :     0.000000  s :     0.000000
  7 H s       :     0.000000  s :     0.000000
  8 H s       :     0.000000  s :     0.000000
  9 H s       :     0.000000  s :     0.000000
 10 H s       :     0.000000  s :     0.000000
 11 H s       :     0.000000  s :     0.000000
 12 H s       :     0.000000  s :     0.000000
 13 H s       :     0.000000  s :     0.000000
 14 H s       :     0.000000  s :     0.000000
 15 H s       :     0.000000  s :     0.000000
 16 H s       :     0.000000  s :     0.000000
 17 H s       :     0.000000  s :     0.000000
 18 H s       :     0.000000  s :     0.000000
 19 H s       :     0.000000  s :     0.000000


                     *******************************
                     * LOEWDIN POPULATION ANALYSIS *
                     *******************************

-------------------------------------------
LOEWDIN ATOMIC CHARGES AND SPIN POPULATIONS
-------------------------------------------
   0 C :   -0.321648    0.000000
   1 C :   -0.222022    0.000000
   2 C :   -0.209286    0.000000
   3 C :   -0.214897    0.000000
   4 C :   -0.222643    0.000000
   5 C :   -0.315239    0.000000
   6 H :    0.108421    0.000000
   7 H :    0.110772    0.000000
   8 H :    0.113259    0.000000
   9 H :    0.103526    0.000000
  10 H :    0.109042    0.000000
  11 H :    0.105936    0.000000
  12 H :    0.104310    0.000000
  13 H :    0.107261    0.000000
  14 H :    0.104156    0.000000
  15 H :    0.107343    0.000000
  16 H :    0.101560    0.000000
  17 H :    0.113948    0.000000
  18 H :    0.107666    0.000000
  19 H :    0.108535    0.000000

----------------------------------------------------
LOEWDIN REDUCED ORBITAL CHARGES AND SPIN POPULATIONS
----------------------------------------------------
CHARGE
  0 C s       :     2.942674  s :     2.942674
      pz      :     1.094048  p :     3.302505
      px      :     1.095679
      py      :     1.112778
      dz2     :     0.021441  d :     0.076468
      dxz     :     0.019695
      dyz     :     0.008148
      dx2y2   :     0.007238
      dxy     :     0.019946
  1 C s       :     2.893224  s :     2.893224
      pz      :     1.074658  p :     3.229086
      px      :     1.066915
      py      :     1.087514
      dz2     :     0.020369  d :     0.099711
      dxz     :     0.029883
      dyz     :     0.009943
      dx2y2   :     0.019229
      dxy     :     0.020287
  2 C s       :     2.898035  s :     2.898035
      pz      :     1.068420  p :     3.210981
      px      :     1.060914
      py      :     1.081647
      dz2     :     0.023492  d :     0.100271
      dxz     :     0.026606
      dyz     :     0.005382
      dx2y2   :     0.022657
      dxy     :     0.022132
  3 C s       :     2.905331  s :     2.905331
      pz      :     1.085799  p :     3.215606
      px      :     1.064350
      py      :     1.065457
      dz2     :     0.025794  d :     0.093960
      dxz     :     0.019942
      dyz     :     0.007773
      dx2y2   :     0.011956
      dxy     :     0.028495
  4 C s       :     2.911785  s :     2.911785
      pz      :     1.087605  p :     3.220204
      px      :     1.056500
      py      :     1.076099
      dz2     :     0.017949  d :     0.090654
      dxz     :     0.011162
      dyz     :     0.020610
      dx2y2   :     0.020786
      dxy     :     0.020148
  5 C s       :     2.959569  s :     2.959569
      pz      :     1.112022  p :     3.282494
      px      :     1.068699
      py      :     1.101773
      dz2     :     0.017403  d :     0.073177
      dxz     :     0.014087
      dyz     :     0.008392
      dx2y2   :     0.019514
      dxy     :     0.013781
  6 H s       :     0.891579  s :     0.891579
  7 H s       :     0.889228  s :     0.889228
  8 H s       :     0.886741  s :     0.886741
  9 H s       :     0.896474  s :     0.896474
 10 H s       :     0.890958  s :     0.890958
 11 H s       :     0.894064  s :     0.894064
 12 H s       :     0.895690  s :     0.895690
 13 H s       :     0.892739  s :     0.892739
 14 H s       :     0.895844  s :     0.895844
 15 H s       :     0.892657  s :     0.892657
 16 H s       :     0.898440  s :     0.898440
 17 H s       :     0.886052  s :     0.886052
 18 H s       :     0.892334  s :     0.892334
 19 H s       :     0.891465  s :     0.891465

SPIN
  0 C s       :     0.000000  s :     0.000000
      pz      :     0.000000  p :     0.000000
      px      :     0.000000
      py      :     0.000000
      dz2     :     0.000000  d :     0.000000
      dxz     :     0.000000
      dyz     :     0.000000
      dx2y2   :     0.000000
      dxy     :     0.000000
  1 C s       :     0.000000  s :     0.000000
      pz      :     0.000000  p :     0.000000
      px      :     0.000000
      py      :     0.000000
      dz2     :     0.000000  d :     0.000000
      dxz     :     0.000000
      dyz     :     0.000000
      dx2y2   :     0.000000
      dxy     :     0.000000
  2 C s       :     0.000000  s :     0.000000
      pz      :     0.000000  p :     0.000000
      px      :     0.000000
      py      :     0.000000
      dz2     :     0.000000  d :     0.000000
      dxz     :     0.000000
      dyz     :     0.000000
      dx2y2   :     0.000000
      dxy     :     0.000000
  3 C s       :     0.000000  s :     0.000000
      pz      :     0.000000  p :     0.000000
      px      :     0.000000
      py      :     0.000000
      dz2     :     0.000000  d :     0.000000
      dxz     :     0.000000
      dyz     :     0.000000
      dx2y2   :     0.000000
      dxy     :     0.000000
  4 C s       :     0.000000  s :     0.000000
      pz      :     0.000000  p :     0.000000
      px      :     0.000000
      py      :     0.000000
      dz2     :     0.000000  d :     0.000000
      dxz     :     0.000000
      dyz     :     0.000000
      dx2y2   :     0.000000
      dxy     :     0.000000
  5 C s       :     0.000000  s :     0.000000
      pz      :     0.000000  p :     0.000000
      px      :     0.000000
      py      :     0.000000
      dz2     :     0.000000  d :     0.000000
      dxz     :     0.000000
      dyz     :     0.000000
      dx2y2   :     0.000000
      dxy     :     0.000000
  6 H s       :     0.000000  s :     0.000000
  7 H s       :     0.000000  s :     0.000000
  8 H s       :     0.000000  s :     0.000000
  9 H s       :     0.000000  s :     0.000000
 10 H s       :     0.000000  s :     0.000000
 11 H s       :     0.000000  s :     0.000000
 12 H s       :     0.000000  s :     0.000000
 13 H s       :     0.000000  s :     0.000000
 14 H s       :     0.000000  s :     0.000000
 15 H s       :     0.000000  s :     0.000000
 16 H s       :     0.000000  s :     0.000000
 17 H s       :     0.000000  s :     0.000000
 18 H s       :     0.000000  s :     0.000000
 19 H s       :     0.000000  s :     0.000000


                      *****************************
                      * MAYER POPULATION ANALYSIS *
                      *****************************

  NA   - Mulliken gross atomic population
  ZA   - Total nuclear charge
  QA   - Mulliken gross atomic charge
  VA   - Mayer's total valence
  BVA  - Mayer's bonded valence
  FA   - Mayer's free valence

  ATOM       NA         ZA         QA         VA         BVA        FA
  0 C      6.2651     6.0000    -0.2651     4.0047     4.0047     0.0000
  1 C      6.1409     6.0000    -0.1409     4.1261     4.1261     0.0000
  2 C      6.1394     6.0000    -0.1394     4.1466     4.1466     0.0000
  3 C      6.1432     6.0000    -0.1432     4.0603     4.0603     0.0000
  4 C      6.1814     6.0000    -0.1814     4.1056     4.1056     0.0000
  5 C      6.2528     6.0000    -0.2528     4.0057     4.0057     0.0000
  6 H      0.9056     1.0000     0.0944     0.9669     0.9669     0.0000
  7 H      0.9098     1.0000     0.0902     0.9523     0.9523     0.0000
  8 H      0.9141     1.0000     0.0859     0.9518     0.9518     0.0000
  9 H      0.9261     1.0000     0.0739     0.9532     0.9532     0.0000
 10 H      0.9287     1.0000     0.0713     0.9438     0.9438     0.0000
 11 H      0.9302     1.0000     0.0698     0.9528     0.9528     0.0000
 12 H      0.9380     1.0000     0.0620     0.9481     0.9481     0.0000
 13 H      0.9226     1.0000     0.0774     0.9588     0.9588     0.0000
 14 H      0.9302     1.0000     0.0698     0.9587     0.9587     0.0000
 15 H      0.9226     1.0000     0.0774     0.9420     0.9420     0.0000
 16 H      0.9243     1.0000     0.0757     0.9600     0.9600     0.0000
 17 H      0.9095     1.0000     0.0905     0.9524     0.9524     0.0000
 18 H      0.9032     1.0000     0.0968     0.9623     0.9623     0.0000
 19 H      0.9124     1.0000     0.0876     0.9540     0.9540     0.0000

  Mayer bond orders larger than 0.100000
B(  0-C ,  1-C ) :   1.1240 B(  0-C ,  6-H ) :   0.9577 B(  0-C ,  7-H ) :   0.9584 
B(  0-C ,  8-H ) :   0.9609 B(  1-C ,  2-C ) :   1.1344 B(  1-C ,  9-H ) :   0.9346 
B(  1-C , 10-H ) :   0.9307 B(  2-C ,  3-C ) :   1.1158 B(  2-C , 11-H ) :   0.9259 
B(  2-C , 12-H ) :   0.9254 B(  3-C ,  4-C ) :   1.0842 B(  3-C , 13-H ) :   0.9213 
B(  3-C , 14-H ) :   0.9392 B(  4-C ,  5-C ) :   1.1200 B(  4-C , 15-H ) :   0.9390 
B(  4-C , 16-H ) :   0.9438 B(  5-C , 17-H ) :   0.9634 B(  5-C , 18-H ) :   0.9597 
B(  5-C , 19-H ) :   0.9619 

-------
TIMINGS
-------

Total SCF time: 0 days 0 hours 6 min 24 sec 

Total time                  ....     384.218 sec
Sum of individual times     ....     321.898 sec  ( 83.8%)

Fock matrix formation       ....     274.886 sec  ( 71.5%)
  XC integration            ....     129.542 sec  ( 47.1% of F)
    Basis function eval.    ....       1.535 sec  (  1.2% of XC)
    Density eval.           ....       1.288 sec  (  1.0% of XC)
    XC-Functional eval.     ....       0.359 sec  (  0.3% of XC)
    XC-Potential eval.      ....       1.722 sec  (  1.3% of XC)
Diagonalization             ....       0.106 sec  (  0.0%)
Density matrix formation    ....      26.250 sec  (  6.8%)
Population analysis         ....       7.317 sec  (  1.9%)
Initial guess               ....       0.342 sec  (  0.1%)
Orbital Transformation      ....       0.000 sec  (  0.0%)
Orbital Orthonormalization  ....       0.000 sec  (  0.0%)
DIIS solution               ....       8.822 sec  (  2.3%)
Grid generation             ....       4.175 sec  (  1.1%)


-------------------------------------------------------------------------------
                          DFT DISPERSION CORRECTION                            
                                                                               
                              DFTD3 V3.1  Rev 1                                
                          USING Becke-Johnson damping                          
-------------------------------------------------------------------------------
The B3LYP functional is recognized
Active option DFTDOPT                   ...         4   

molecular C6(AA) [au] = 2518.210795 


            DFT-D V3
 parameters
 s6 scaling factor         :     1.0000 
 a1 scaling factor         :     0.3981 
 s8 scaling factor         :     1.9889 
 a2 scaling factor         :     4.4211 
 ad hoc parameters k1-k3   :    16.0000     1.3333    -4.0000 

 Edisp/kcal,au: -15.993608643640  -0.025487435009 
 E6   /kcal   :  -8.031066535 
 E8   /kcal   :  -7.962542108 
 % E8         :  49.785775592 

-------------------------   ----------------
Dispersion correction           -0.025487435
-------------------------   ----------------


-------------------------   --------------------
FINAL SINGLE POINT ENERGY      -236.697562531237
-------------------------   --------------------

------------------------------------------------------------------------------
                         ORCA SCF GRADIENT CALCULATION
------------------------------------------------------------------------------

Gradient of the Kohn-Sham DFT energy:
Kohn-Sham wavefunction type      ... UKS
Hartree-Fock exchange scaling    ...    0.200
Number of operators              ...    2
Number of atoms                  ...   20
Basis set dimensions             ...  112
Integral neglect threshold       ... 1.0e-12
Integral primitive cutoff        ... 1.0e-14

Nuclear repulsion gradient       ... done
One Electron Gradient            ... done
Pre-screening matrix             ... done
Starting the two electron gradient:
Two electron gradient done
Exchange-correlation gradient    ... done
Dispersion correction            ... done

------------------
CARTESIAN GRADIENT
------------------

   1   C   :    0.033797139   -0.013447950   -0.019442387
   2   C   :    0.010094173   -0.012470647    0.034896989
   3   C   :   -0.006622855    0.014286137    0.007854540
   4   C   :   -0.017536091    0.016100534   -0.002828373
   5   C   :    0.002746754   -0.015773664   -0.005850392
   6   C   :   -0.009312659   -0.011219914    0.010777044
   7   H   :   -0.005251049   -0.001242367   -0.003087255
   8   H   :   -0.009331855   -0.001644532    0.002215939
   9   H   :   -0.000542482    0.007293969   -0.005831909
  10   H   :    0.004889640    0.004055339   -0.006004509
  11   H   :   -0.004817287   -0.006209732   -0.002799770
  12   H   :    0.004232532    0.011573902   -0.004130770
  13   H   :    0.000564877    0.003788147    0.006920662
  14   H   :    0.002907163    0.003367477   -0.000300879
  15   H   :    0.008684107   -0.004263612   -0.004968878
  16   H   :   -0.003465722    0.001457643    0.009616718
  17   H   :   -0.001835447    0.002880722   -0.003319227
  18   H   :   -0.009719900    0.008201137   -0.000353228
  19   H   :   -0.000915143   -0.010134749   -0.004716183
  20   H   :    0.001434106    0.003402157   -0.008648131

Difference to translation invariance:
           :   -0.0000000000   -0.0000000000    0.0000000000

Norm of the cartesian gradient     ...    0.0769541653
RMS gradient                       ...    0.0099347400
MAX gradient                       ...    0.0348969890

-------
TIMINGS
-------

Total SCF gradient time            ...       11.253 sec

One electron gradient       ....       0.081 sec  (  0.7%)
Prescreening matrices       ....       0.045 sec  (  0.4%)
Two electron gradient       ....       4.890 sec  ( 43.5%)
XC gradient                 ....       5.976 sec  ( 53.1%)
------------------------------------------------------------------------------
                         ORCA GEOMETRY RELAXATION STEP
------------------------------------------------------------------------------

Reading the OPT-File                    .... done
Getting information on internals        .... done
Copying old internal coords+grads       .... done
Making the new internal coordinates     .... (new redundants).... done
Validating the new internal coordinates .... (new redundants).... done
Calculating the B-matrix                .... done
Calculating the G,G- and P matrices     .... done
Transforming gradient to internals      .... done
Projecting the internal gradient        .... done
Number of atoms                         ....  20
Number of internal coordinates          .... 100
Current Energy                          ....  -236.697562531 Eh
Current gradient norm                   ....     0.076954165 Eh/bohr
Maximum allowed component of the step   ....  0.300
Current trust radius                    ....  0.300
Evaluating the initial hessian          ....  (Almloef) done
Projecting the Hessian                  .... done
Forming the augmented Hessian           .... done
Diagonalizing the augmented Hessian     .... done
Last element of RFO vector              ....  0.948789281
Lowest eigenvalues of augmented Hessian:
 -0.019895336  0.011893679  0.012444864  0.014132947  0.015252889
Length of the computed step             ....  0.332960802
Warning: the length of the step is outside the trust region - taking restricted step instead
The input lambda is                     ....    -0.019895
   iter:   1  x=   -0.026088  g=    3.369041 f(x)=     0.020863
   iter:   2  x=   -0.027888  g=    2.209959 f(x)=     0.003978
   iter:   3  x=   -0.027991  g=    1.987970 f(x)=     0.000205
   iter:   4  x=   -0.027992  g=    1.976314 f(x)=     0.000001
   iter:   5  x=   -0.027992  g=    1.976280 f(x)=     0.000000
   iter:   6  x=   -0.027992  g=    1.976280 f(x)=    -0.000000
The output lambda is                    ....    -0.027992 (6 iterations)
The final length of the internal step   ....  0.300000000
Converting the step to cartesian space:
 Initial RMS(Int)=    0.0300000000
Transforming coordinates:
 Iter   0:  RMS(Cart)=    0.0925273473 RMS(Int)=    0.0301765986
 Iter   1:  RMS(Cart)=    0.0026006009 RMS(Int)=    0.0014136352
 Iter   2:  RMS(Cart)=    0.0001755809 RMS(Int)=    0.0000830815
 Iter   3:  RMS(Cart)=    0.0000141658 RMS(Int)=    0.0000087647
 Iter   4:  RMS(Cart)=    0.0000010869 RMS(Int)=    0.0000006516
 Iter   5:  RMS(Cart)=    0.0000000913 RMS(Int)=    0.0000000600
done
Storing new coordinates                 .... done

                                .--------------------.
          ----------------------|Geometry convergence|-------------------------
          Item                value                   Tolerance       Converged
          ---------------------------------------------------------------------
          RMS gradient        0.0081088492            0.0001000000      NO
          MAX gradient        0.0372191422            0.0003000000      NO
          RMS step            0.0300000000            0.0020000000      NO
          MAX step            0.0792104115            0.0040000000      NO
          ........................................................
          Max(Bonds)      0.0419      Max(Angles)    3.67
          Max(Dihed)        4.06      Max(Improp)    0.00
          ---------------------------------------------------------------------

The optimization has not yet converged - more geometry cycles are needed


    ---------------------------------------------------------------------------
                         Redundant Internal Coordinates
                            (Angstroem and degrees)

        Definition                    Value    dE/dq     Step     New-Value
    ----------------------------------------------------------------------------
     1. B(C   1,C   0)                1.4872 -0.031487  0.0358    1.5230   
     2. B(C   2,C   1)                1.4843 -0.037219  0.0419    1.5262   
     3. B(C   3,C   2)                1.4995 -0.027242  0.0323    1.5319   
     4. B(C   4,C   3)                1.5159 -0.028406  0.0357    1.5516   
     5. B(C   5,C   4)                1.5249 -0.015954  0.0207    1.5455   
     6. B(H   6,C   0)                1.0963 -0.004809  0.0067    1.1030   
     7. B(H   7,C   0)                1.1195  0.008215 -0.0124    1.1071   
     8. B(H   8,C   0)                1.1161  0.005812 -0.0087    1.1075   
     9. B(H   9,C   1)                1.1189  0.006481 -0.0097    1.1092   
    10. B(H  10,C   1)                1.1192  0.006545 -0.0099    1.1093   
    11. B(H  11,C   2)                1.1190  0.007328 -0.0110    1.1079   
    12. B(H  12,C   2)                1.1036 -0.003103  0.0044    1.1080   
    13. B(H  13,C   3)                1.1025 -0.001084  0.0015    1.1041   
    14. B(H  14,C   3)                1.1204  0.008724 -0.0132    1.1072   
    15. B(H  15,C   4)                1.1195  0.007944 -0.0120    1.1076   
    16. B(H  16,C   4)                1.1128  0.004367 -0.0064    1.1064   
    17. B(H  17,C   5)                1.1030 -0.000514  0.0007    1.1038   
    18. B(H  18,C   5)                1.1196  0.010545 -0.0159    1.1037   
    19. B(H  19,C   5)                1.1184  0.007981 -0.0120    1.1065   
    20. A(H   7,C   0,H   8)          104.61  0.000675    0.50    105.11   
    21. A(C   1,C   0,H   7)          114.14  0.006067   -1.05    113.09   
    22. A(C   1,C   0,H   6)          115.82  0.005156   -1.10    114.72   
    23. A(H   6,C   0,H   7)          106.11 -0.004316    0.21    106.32   
    24. A(H   6,C   0,H   8)          108.05  0.004351   -0.72    107.34   
    25. A(C   1,C   0,H   8)          107.42 -0.012121    2.28    109.70   
    26. A(C   2,C   1,H  10)          107.07  0.000577    0.28    107.35   
    27. A(C   0,C   1,H  10)          107.29 -0.001716    0.51    107.80   
    28. A(C   2,C   1,H   9)          107.57 -0.003710    0.66    108.22   
    29. A(C   0,C   1,H   9)          113.09  0.005293   -1.33    111.76   
    30. A(H   9,C   1,H  10)          105.03  0.000609   -0.37    104.66   
    31. A(C   0,C   1,C   2)          116.07 -0.001039    0.26    116.33   
    32. A(H  11,C   2,H  12)          111.38  0.004878   -2.18    109.20   
    33. A(C   1,C   2,C   3)          115.15  0.000065    0.50    115.66   
    34. A(C   3,C   2,H  11)          106.63 -0.000241    0.15    106.78   
    35. A(C   1,C   2,H  11)          107.30 -0.001595    0.34    107.64   
    36. A(C   1,C   2,H  12)          108.90  0.000166    0.17    109.07   
    37. A(C   3,C   2,H  12)          107.50 -0.002926    0.87    108.37   
    38. A(C   2,C   3,C   4)          113.11 -0.006896    1.27    114.38   
    39. A(H  13,C   3,H  14)          106.78  0.001015   -0.93    105.85   
    40. A(C   4,C   3,H  14)          105.97 -0.002842    1.75    107.72   
    41. A(C   2,C   3,H  14)          106.36  0.000640    0.62    106.98   
    42. A(C   4,C   3,H  13)          110.14  0.001518   -0.61    109.53   
    43. A(C   2,C   3,H  13)          113.88  0.006297   -1.90    111.99   
    44. A(H  15,C   4,H  16)          106.33 -0.002208   -0.89    105.44   
    45. A(C   5,C   4,H  16)          111.82  0.007240   -1.23    110.59   
    46. A(C   3,C   4,H  16)          110.82  0.006608   -0.86    109.96   
    47. A(C   5,C   4,H  15)          109.06  0.006721   -0.90    108.16   
    48. A(C   3,C   4,H  15)          108.32  0.003460    0.05    108.37   
    49. A(C   3,C   4,C   5)          110.33 -0.020984    3.67    114.01   
    50. A(C   4,C   5,H  17)          106.39 -0.015353    2.57    108.96   
    51. A(H  18,C   5,H  19)          107.31  0.002087   -0.33    106.98   
    52. A(H  17,C   5,H  19)          108.73  0.007305   -0.96    107.78   
    53. A(C   4,C   5,H  19)          110.67 -0.003163    0.70    111.37   
    54. A(H  17,C   5,H  18)          112.33  0.010078   -2.07    110.26   
    55. A(C   4,C   5,H  18)          111.41 -0.000767    0.06    111.47   
    56. D(H   9,C   1,C   0,H   8)     23.85  0.001551    0.48     24.33   
    57. D(H  10,C   1,C   0,H   7)     23.99 -0.004614    2.84     26.83   
    58. D(H   9,C   1,C   0,H   7)    139.33 -0.002043    1.98    141.31   
    59. D(H  10,C   1,C   0,H   8)    -91.49 -0.001020    1.34    -90.15   
    60. D(H   9,C   1,C   0,H   6)    -96.99  0.001669    0.41    -96.58   
    61. D(C   2,C   1,C   0,H   8)    148.87  0.000171    0.44    149.31   
    62. D(C   2,C   1,C   0,H   7)    -95.65 -0.003423    1.94    -93.71   
    63. D(C   2,C   1,C   0,H   6)     28.03  0.000289    0.37     28.40   
    64. D(H  10,C   1,C   0,H   6)    147.67 -0.000902    1.27    148.94   
    65. D(H  11,C   2,C   1,H   9)    -53.09  0.004200   -2.37    -55.46   
    66. D(C   3,C   2,C   1,H  10)    177.87  0.002065   -1.63    176.24   
    67. D(C   3,C   2,C   1,C   0)    -62.37 -0.000364   -0.61    -62.97   
    68. D(H  11,C   2,C   1,C   0)    179.11  0.001022   -1.33    177.78   
    69. D(H  11,C   2,C   1,H  10)     59.35  0.003451   -2.36     56.99   
    70. D(H  12,C   2,C   1,H  10)    -61.34 -0.001559   -0.03    -61.37   
    71. D(H  12,C   2,C   1,H   9)   -173.78 -0.000811   -0.04   -173.82   
    72. D(H  12,C   2,C   1,C   0)     58.43 -0.003988    0.99     59.42   
    73. D(C   3,C   2,C   1,H   9)     65.43  0.002814   -1.64     63.79   
    74. D(H  14,C   3,C   2,H  11)    -75.50  0.000748    0.88    -74.62   
    75. D(H  14,C   3,C   2,C   1)    165.61  0.002884    0.05    165.65   
    76. D(H  13,C   3,C   2,H  12)    -73.28 -0.000379    0.65    -72.63   
    77. D(H  13,C   3,C   2,H  11)    167.17 -0.004437    2.68    169.85   
    78. D(H  13,C   3,C   2,C   1)     48.28 -0.002302    1.85     50.13   
    79. D(C   4,C   3,C   2,H  11)     40.41 -0.005979    4.06     44.47   
    80. D(C   4,C   3,C   2,H  12)    159.96 -0.001921    2.03    161.99   
    81. D(H  14,C   3,C   2,H  12)     44.05  0.004806   -1.15     42.90   
    82. D(C   4,C   3,C   2,C   1)    -78.48 -0.003844    3.23    -75.25   
    83. D(H  15,C   4,C   3,C   2)    107.53  0.005305   -3.33    104.19   
    84. D(C   5,C   4,C   3,H  14)    -17.02 -0.001351    0.26    -16.76   
    85. D(C   5,C   4,C   3,H  13)     98.13 -0.000954   -0.19     97.94   
    86. D(C   5,C   4,C   3,C   2)   -133.16  0.003268   -2.24   -135.40   
    87. D(H  16,C   4,C   3,H  14)    107.39 -0.002365    0.70    108.08   
    88. D(H  16,C   4,C   3,H  13)   -137.47 -0.001967    0.25   -137.22   
    89. D(H  16,C   4,C   3,C   2)     -8.76  0.002254   -1.81    -10.56   
    90. D(H  15,C   4,C   3,H  14)   -136.33  0.000686   -0.83   -137.16   
    91. D(H  15,C   4,C   3,H  13)    -21.19  0.001084   -1.28    -22.47   
    92. D(H  19,C   5,C   4,H  16)     26.27  0.001700    0.82     27.10   
    93. D(H  19,C   5,C   4,H  15)    -91.03 -0.004122    3.22    -87.81   
    94. D(H  19,C   5,C   4,C   3)    150.10  0.000087    1.51    151.62   
    95. D(H  18,C   5,C   4,H  16)    -93.03  0.001669    0.73    -92.30   
    96. D(H  18,C   5,C   4,H  15)    149.66 -0.004152    3.13    152.79   
    97. D(H  18,C   5,C   4,C   3)     30.79  0.000057    1.42     32.22   
    98. D(H  17,C   5,C   4,H  16)    144.23 -0.000216    1.56    145.79   
    99. D(H  17,C   5,C   4,H  15)     26.92 -0.006038    3.96     30.88   
   100. D(H  17,C   5,C   4,C   3)    -91.94 -0.001829    2.25    -89.69   
    ----------------------------------------------------------------------------

         *************************************************************
         *                GEOMETRY OPTIMIZATION CYCLE   2            *
         *************************************************************
---------------------------------
CARTESIAN COORDINATES (ANGSTROEM)
---------------------------------
  C     -2.601064    0.164129    0.615688
  C     -1.774183    0.216572   -0.662225
  C     -0.579589   -0.730508   -0.734903
  C      0.519259   -0.492863    0.305595
  C      1.417667    0.738956    0.017724
  C      2.927878    0.474991    0.213331
  H     -2.040732   -0.141483    1.515240
  H     -3.468900   -0.519415    0.543199
  H     -3.035739    1.161938    0.820476
  H     -1.416065    1.243809   -0.878512
  H     -2.444854   -0.031317   -1.510390
  H     -0.110310   -0.603092   -1.730435
  H     -0.938128   -1.773816   -0.631874
  H      0.111068   -0.421211    1.328914
  H      1.167478   -1.390442    0.300615
  H      1.119378    1.556259    0.703105
  H      1.218585    1.122087   -1.000924
  H      3.198340    0.699258    1.259679
  H      3.191149   -0.567890   -0.034331
  H      3.538767    1.126328   -0.439974

----------------------------
CARTESIAN COORDINATES (A.U.)
----------------------------
  NO LB      ZA    FRAG     MASS         X           Y           Z
   0 C     6.0000    0    12.011   -4.915299    0.310159    1.163482
   1 C     6.0000    0    12.011   -3.352720    0.409262   -1.251423
   2 C     6.0000    0    12.011   -1.095265   -1.380460   -1.388766
   3 C     6.0000    0    12.011    0.981257   -0.931376    0.577491
   4 C     6.0000    0    12.011    2.679002    1.396424    0.033494
   5 C     6.0000    0    12.011    5.532887    0.897603    0.403137
   6 H     1.0000    0     1.008   -3.856424   -0.267364    2.863389
   7 H     1.0000    0     1.008   -6.555271   -0.981552    1.026497
   8 H     1.0000    0     1.008   -5.736715    2.195744    1.550475
   9 H     1.0000    0     1.008   -2.675976    2.350458   -1.660148
  10 H     1.0000    0     1.008   -4.620104   -0.059180   -2.854223
  11 H     1.0000    0     1.008   -0.208456   -1.139680   -3.270049
  12 H     1.0000    0     1.008   -1.772806   -3.352026   -1.194069
  13 H     1.0000    0     1.008    0.209887   -0.795973    2.511283
  14 H     1.0000    0     1.008    2.206213   -2.627554    0.568081
  15 H     1.0000    0     1.008    2.115318    2.940904    1.328677
  16 H     1.0000    0     1.008    2.302791    2.120437   -1.891473
  17 H     1.0000    0     1.008    6.043986    1.321407    2.380448
  18 H     1.0000    0     1.008    6.030398   -1.073156   -0.064875
  19 H     1.0000    0     1.008    6.687301    2.128451   -0.831430

--------------------------------
INTERNAL COORDINATES (ANGSTROEM)
--------------------------------
 C      0   0   0     0.000000000000     0.00000000     0.00000000
 C      1   0   0     1.523005137991     0.00000000     0.00000000
 C      2   1   0     1.526203453291   116.33066504     0.00000000
 C      3   2   1     1.531854784988   115.64902757   297.02639415
 C      4   3   2     1.551574590437   114.36184915   284.75584503
 C      5   4   3     1.545534271558   113.99896472   224.59194360
 H      1   2   3     1.102979858556   114.71111365    28.40403925
 H      1   2   3     1.107079872209   113.07390027   266.28149390
 H      1   2   3     1.107475706964   109.70800220   149.30493302
 H      2   1   3     1.109163670249   111.76535002   235.02041699
 H      2   1   3     1.109338366090   107.79413070   120.54392522
 H      3   2   1     1.107944500069   107.63510805   177.77530877
 H      3   2   1     1.107996987750   109.06287097    59.41643977
 H      4   3   2     1.104053829538   111.98888990    50.12736979
 H      4   3   2     1.107185609977   106.92694844   165.65280290
 H      5   4   3     1.107568707034   108.36657390   104.16958976
 H      5   4   3     1.106376239536   109.97195732   349.42423845
 H      6   5   4     1.103761341889   108.94821648   270.31539934
 H      6   5   4     1.103743031910   111.47222098    32.21474776
 H      6   5   4     1.106450702391   111.36010098   151.60740095

---------------------------
INTERNAL COORDINATES (A.U.)
---------------------------
 C      0   0   0     0.000000000000     0.00000000     0.00000000
 C      1   0   0     2.878062611358     0.00000000     0.00000000
 C      2   1   0     2.884106551364   116.33066504     0.00000000
 C      3   2   1     2.894786020564   115.64902757   297.02639415
 C      4   3   2     2.932051052277   114.36184915   284.75584503
 C      5   4   3     2.920636503834   113.99896472   224.59194360
 H      1   2   3     2.084329863903   114.71111365    28.40403925
 H      1   2   3     2.092077766852   113.07390027   266.28149390
 H      1   2   3     2.092825786133   109.70800220   149.30493302
 H      2   1   3     2.096015574465   111.76535002   235.02041699
[...]
  32   0.0000       0.143128         3.8947 
  33   0.0000       0.148252         4.0341 
  34   0.0000       0.156775         4.2661 
  35   0.0000       0.162963         4.4345 
  36   0.0000       0.172455         4.6927 
  37   0.0000       0.174063         4.7365 
  38   0.0000       0.187151         5.0926 
  39   0.0000       0.224034         6.0963 
  40   0.0000       0.231577         6.3015 
  41   0.0000       0.240489         6.5440 
  42   0.0000       0.254833         6.9344 
  43   0.0000       0.283405         7.7119 
  44   0.0000       0.414477        11.2785 
  45   0.0000       0.422156        11.4875 
  46   0.0000       0.430254        11.7078 
  47   0.0000       0.437216        11.8972 
  48   0.0000       0.444147        12.0859 
  49   0.0000       0.458156        12.4671 
  50   0.0000       0.487683        13.2705 
  51   0.0000       0.528575        14.3833 
  52   0.0000       0.559640        15.2286 
  53   0.0000       0.611297        16.6342 
  54   0.0000       0.621223        16.9043 
  55   0.0000       0.630262        17.1503 
  56   0.0000       0.644642        17.5416 
  57   0.0000       0.661102        17.9895 
  58   0.0000       0.677361        18.4319 
  59   0.0000       0.683685        18.6040 
  60   0.0000       0.690477        18.7888 
  61   0.0000       0.699871        19.0445 
  62   0.0000       0.704607        19.1733 
  63   0.0000       0.712287        19.3823 
  64   0.0000       0.716405        19.4944 
  65   0.0000       0.717544        19.5254 
  66   0.0000       0.727887        19.8068 
  67   0.0000       0.731603        19.9079 
  68   0.0000       0.738045        20.0832 
  69   0.0000       0.742626        20.2079 
  70   0.0000       0.746076        20.3018 
  71   0.0000       0.755678        20.5631 
  72   0.0000       0.758486        20.6394 
  73   0.0000       0.763557        20.7774 
  74   0.0000       0.775273        21.0963 
  75   0.0000       0.849618        23.1193 
  76   0.0000       0.990631        26.9565 
  77   0.0000       1.008963        27.4553 
  78   0.0000       1.034121        28.1399 
  79   0.0000       1.060673        28.8624 
  80   0.0000       1.144643        31.1473 
  81   0.0000       1.151191        31.3255 
  82   0.0000       1.414826        38.4994 
  83   0.0000       1.445114        39.3236 
  84   0.0000       1.548707        42.1425 
  85   0.0000       1.574915        42.8556 
  86   0.0000       1.671280        45.4778 
  87   0.0000       1.775183        48.3052 
  88   0.0000       1.831921        49.8491 
  89   0.0000       1.860797        50.6348 
  90   0.0000       1.894601        51.5547 
  91   0.0000       1.912622        52.0451 
  92   0.0000       1.919435        52.2305 
  93   0.0000       1.937396        52.7192 
  94   0.0000       1.980681        53.8971 
  95   0.0000       1.990592        54.1668 
  96   0.0000       2.056347        55.9561 
  97   0.0000       2.084727        56.7283 
  98   0.0000       2.132030        58.0155 
  99   0.0000       2.166684        58.9585 
 100   0.0000       2.196730        59.7761 
 101   0.0000       2.253028        61.3080 
 102   0.0000       2.267418        61.6996 
 103   0.0000       2.287346        62.2419 
 104   0.0000       2.310615        62.8750 
 105   0.0000       2.369783        64.4851 
 106   0.0000       2.387547        64.9685 
 107   0.0000       2.506730        68.2116 
 108   0.0000       2.566292        69.8324 
 109   0.0000       2.640293        71.8460 
 110   0.0000       2.684228        73.0416 
 111   0.0000       2.743233        74.6472 

                    ********************************
                    * MULLIKEN POPULATION ANALYSIS *
                    ********************************

------------------------------------------
FOD BASED MULLIKEN REDUCED ORBITAL CHARGES
------------------------------------------
  0 C s       :    -0.000000  s :    -0.000000
      pz      :     0.000000  p :     0.000000
      px      :     0.000000
      py      :     0.000000
      dz2     :     0.000000  d :     0.000000
      dxz     :     0.000000
      dyz     :     0.000000
      dx2y2   :     0.000000
      dxy     :     0.000000
  1 C s       :    -0.000000  s :    -0.000000
      pz      :     0.000000  p :     0.000000
      px      :     0.000000
      py      :     0.000000
      dz2     :     0.000000  d :     0.000000
      dxz     :     0.000000
      dyz     :     0.000000
      dx2y2   :     0.000000
      dxy     :     0.000000
  2 C s       :    -0.000000  s :    -0.000000
      pz      :     0.000000  p :     0.000000
      px      :     0.000000
      py      :     0.000000
      dz2     :     0.000000  d :     0.000000
      dxz     :     0.000000
      dyz     :     0.000000
      dx2y2   :     0.000000
      dxy     :     0.000000
  3 C s       :    -0.000000  s :    -0.000000
      pz      :     0.000000  p :     0.000000
      px      :     0.000000
      py      :     0.000000
      dz2     :     0.000000  d :     0.000000
      dxz     :     0.000000
      dyz     :     0.000000
      dx2y2   :     0.000000
      dxy     :     0.000000
  4 C s       :    -0.000000  s :    -0.000000
      pz      :     0.000000  p :     0.000000
      px      :     0.000000
      py      :     0.000000
      dz2     :     0.000000  d :     0.000000
      dxz     :     0.000000
      dyz     :     0.000000
      dx2y2   :     0.000000
      dxy     :     0.000000
  5 C s       :    -0.000000  s :    -0.000000
      pz      :     0.000000  p :     0.000000
      px      :     0.000000
      py      :     0.000000
      dz2     :     0.000000  d :     0.000000
      dxz     :     0.000000
      dyz     :     0.000000
      dx2y2   :     0.000000
      dxy     :     0.000000
  6 H s       :     0.000000  s :     0.000000
  7 H s       :     0.000000  s :     0.000000
  8 H s       :     0.000000  s :     0.000000
  9 H s       :     0.000000  s :     0.000000
 10 H s       :     0.000000  s :     0.000000
 11 H s       :     0.000000  s :     0.000000
 12 H s       :     0.000000  s :     0.000000
 13 H s       :     0.000000  s :     0.000000
 14 H s       :     0.000000  s :     0.000000
 15 H s       :     0.000000  s :     0.000000
 16 H s       :     0.000000  s :     0.000000
 17 H s       :     0.000000  s :     0.000000
 18 H s       :     0.000000  s :     0.000000
 19 H s       :     0.000000  s :     0.000000


                     *******************************
                     * LOEWDIN POPULATION ANALYSIS *
                     *******************************

-------------------------------------------
LOEWDIN ATOMIC CHARGES AND SPIN POPULATIONS
-------------------------------------------
   0 C :   -0.323568    0.000000
   1 C :   -0.219480    0.000000
   2 C :   -0.209840    0.000000
   3 C :   -0.214870    0.000000
   4 C :   -0.220512    0.000000
   5 C :   -0.319541    0.000000
   6 H :    0.109174    0.000000
   7 H :    0.108740    0.000000
   8 H :    0.112169    0.000000
   9 H :    0.105490    0.000000
  10 H :    0.108230    0.000000
  11 H :    0.105983    0.000000
  12 H :    0.105084    0.000000
  13 H :    0.105155    0.000000
  14 H :    0.106836    0.000000
  15 H :    0.106400    0.000000
  16 H :    0.105791    0.000000
  17 H :    0.109453    0.000000
  18 H :    0.108693    0.000000
  19 H :    0.110613    0.000000

----------------------------------------------------
LOEWDIN REDUCED ORBITAL CHARGES AND SPIN POPULATIONS
----------------------------------------------------
CHARGE
  0 C s       :     2.951316  s :     2.951316
      pz      :     1.082010  p :     3.298961
      px      :     1.105502
      py      :     1.111449
      dz2     :     0.017211  d :     0.073291
      dxz     :     0.019222
      dyz     :     0.010992
      dx2y2   :     0.006839
      dxy     :     0.019027
  1 C s       :     2.910113  s :     2.910113
      pz      :     1.066745  p :     3.218702
      px      :     1.070385
      py      :     1.081572
      dz2     :     0.019505  d :     0.090666
      dxz     :     0.024662
      dyz     :     0.012227
      dx2y2   :     0.015340
      dxy     :     0.018932
  2 C s       :     2.912913  s :     2.912913
      pz      :     1.079731  p :     3.206867
      px      :     1.053660
      py      :     1.073476
      dz2     :     0.026475  d :     0.090060
      dxz     :     0.017211
      dyz     :     0.004790
      dx2y2   :     0.017522
      dxy     :     0.024062
  3 C s       :     2.912663  s :     2.912663
      pz      :     1.086847  p :     3.212123
      px      :     1.055851
      py      :     1.069424
      dz2     :     0.026809  d :     0.090084
      dxz     :     0.015354
      dyz     :     0.006799
      dx2y2   :     0.013942
      dxy     :     0.027180
  4 C s       :     2.910841  s :     2.910841
      pz      :     1.085251  p :     3.219154
      px      :     1.057744
      py      :     1.076159
      dz2     :     0.026451  d :     0.090517
      dxz     :     0.014745
      dyz     :     0.007612
      dx2y2   :     0.015541
      dxy     :     0.026168
  5 C s       :     2.952511  s :     2.952511
      pz      :     1.104232  p :     3.293647
      px      :     1.079679
      py      :     1.109735
      dz2     :     0.024887  d :     0.073384
      dxz     :     0.011607
      dyz     :     0.003599
      dx2y2   :     0.009449
      dxy     :     0.023843
  6 H s       :     0.890826  s :     0.890826
  7 H s       :     0.891260  s :     0.891260
  8 H s       :     0.887831  s :     0.887831
  9 H s       :     0.894510  s :     0.894510
 10 H s       :     0.891770  s :     0.891770
 11 H s       :     0.894017  s :     0.894017
 12 H s       :     0.894916  s :     0.894916
 13 H s       :     0.894845  s :     0.894845
 14 H s       :     0.893164  s :     0.893164
 15 H s       :     0.893600  s :     0.893600
 16 H s       :     0.894209  s :     0.894209
 17 H s       :     0.890547  s :     0.890547
 18 H s       :     0.891307  s :     0.891307
 19 H s       :     0.889387  s :     0.889387

SPIN
  0 C s       :     0.000000  s :     0.000000
      pz      :     0.000000  p :     0.000000
      px      :     0.000000
      py      :     0.000000
      dz2     :     0.000000  d :     0.000000
      dxz     :     0.000000
      dyz     :     0.000000
      dx2y2   :     0.000000
      dxy     :     0.000000
  1 C s       :     0.000000  s :     0.000000
      pz      :     0.000000  p :     0.000000
      px      :     0.000000
      py      :     0.000000
      dz2     :     0.000000  d :     0.000000
      dxz     :     0.000000
      dyz     :     0.000000
      dx2y2   :     0.000000
      dxy     :     0.000000
  2 C s       :     0.000000  s :     0.000000
      pz      :     0.000000  p :     0.000000
      px      :     0.000000
      py      :     0.000000
      dz2     :     0.000000  d :     0.000000
      dxz     :     0.000000
      dyz     :     0.000000
      dx2y2   :     0.000000
      dxy     :     0.000000
  3 C s       :     0.000000  s :     0.000000
      pz      :     0.000000  p :     0.000000
      px      :     0.000000
      py      :     0.000000
      dz2     :     0.000000  d :     0.000000
      dxz     :     0.000000
      dyz     :     0.000000
      dx2y2   :     0.000000
      dxy     :     0.000000
  4 C s       :     0.000000  s :     0.000000
      pz      :     0.000000  p :     0.000000
      px      :     0.000000
      py      :     0.000000
      dz2     :     0.000000  d :     0.000000
      dxz     :     0.000000
      dyz     :     0.000000
      dx2y2   :     0.000000
      dxy     :     0.000000
  5 C s       :     0.000000  s :     0.000000
      pz      :     0.000000  p :     0.000000
      px      :     0.000000
      py      :     0.000000
      dz2     :     0.000000  d :     0.000000
      dxz     :     0.000000
      dyz     :     0.000000
      dx2y2   :     0.000000
      dxy     :     0.000000
  6 H s       :     0.000000  s :     0.000000
  7 H s       :     0.000000  s :     0.000000
  8 H s       :     0.000000  s :     0.000000
  9 H s       :     0.000000  s :     0.000000
 10 H s       :     0.000000  s :     0.000000
 11 H s       :     0.000000  s :     0.000000
 12 H s       :     0.000000  s :     0.000000
 13 H s       :     0.000000  s :     0.000000
 14 H s       :     0.000000  s :     0.000000
 15 H s       :     0.000000  s :     0.000000
 16 H s       :     0.000000  s :     0.000000
 17 H s       :     0.000000  s :     0.000000
 18 H s       :     0.000000  s :     0.000000
 19 H s       :     0.000000  s :     0.000000


                      *****************************
                      * MAYER POPULATION ANALYSIS *
                      *****************************

  NA   - Mulliken gross atomic population
  ZA   - Total nuclear charge
  QA   - Mulliken gross atomic charge
  VA   - Mayer's total valence
  BVA  - Mayer's bonded valence
  FA   - Mayer's free valence

  ATOM       NA         ZA         QA         VA         BVA        FA
  0 C      6.2770     6.0000    -0.2770     4.0103     4.0103     0.0000
  1 C      6.1488     6.0000    -0.1488     4.1227     4.1227     0.0000
  2 C      6.1151     6.0000    -0.1151     4.0872     4.0872     0.0000
  3 C      6.1602     6.0000    -0.1602     4.0877     4.0877     0.0000
  4 C      6.1743     6.0000    -0.1743     4.1215     4.1215     0.0000
  5 C      6.2451     6.0000    -0.2451     4.0061     4.0061     0.0000
  6 H      0.9016     1.0000     0.0984     0.9573     0.9573     0.0000
  7 H      0.9139     1.0000     0.0861     0.9567     0.9567     0.0000
  8 H      0.9064     1.0000     0.0936     0.9515     0.9515     0.0000
  9 H      0.9221     1.0000     0.0779     0.9508     0.9508     0.0000
 10 H      0.9280     1.0000     0.0720     0.9454     0.9454     0.0000
 11 H      0.9334     1.0000     0.0666     0.9513     0.9513     0.0000
 12 H      0.9352     1.0000     0.0648     0.9509     0.9509     0.0000
 13 H      0.9253     1.0000     0.0747     0.9577     0.9577     0.0000
 14 H      0.9327     1.0000     0.0673     0.9516     0.9516     0.0000
 15 H      0.9190     1.0000     0.0810     0.9499     0.9499     0.0000
 16 H      0.9292     1.0000     0.0708     0.9501     0.9501     0.0000
 17 H      0.9116     1.0000     0.0884     0.9570     0.9570     0.0000
 18 H      0.9126     1.0000     0.0874     0.9574     0.9574     0.0000
 19 H      0.9086     1.0000     0.0914     0.9514     0.9514     0.0000

  Mayer bond orders larger than 0.100000
B(  0-C ,  1-C ) :   1.1309 B(  0-C ,  6-H ) :   0.9542 B(  0-C ,  7-H ) :   0.9606 
B(  0-C ,  8-H ) :   0.9588 B(  1-C ,  2-C ) :   1.1105 B(  1-C ,  9-H ) :   0.9322 
B(  1-C , 10-H ) :   0.9349 B(  2-C ,  3-C ) :   1.1112 B(  2-C , 11-H ) :   0.9292 
B(  2-C , 12-H ) :   0.9325 B(  3-C ,  4-C ) :   1.1140 B(  3-C , 13-H ) :   0.9270 
B(  3-C , 14-H ) :   0.9311 B(  4-C ,  5-C ) :   1.1336 B(  4-C , 15-H ) :   0.9285 
B(  4-C , 16-H ) :   0.9357 B(  5-C , 17-H ) :   0.9593 B(  5-C , 18-H ) :   0.9597 
B(  5-C , 19-H ) :   0.9599 

-------
TIMINGS
-------

Total SCF time: 0 days 0 hours 3 min 19 sec 

Total time                  ....     199.203 sec
Sum of individual times     ....     165.544 sec  ( 83.1%)

Fock matrix formation       ....     135.351 sec  ( 67.9%)
  XC integration            ....      52.345 sec  ( 38.7% of F)
    Basis function eval.    ....       1.120 sec  (  2.1% of XC)
    Density eval.           ....       0.897 sec  (  1.7% of XC)
    XC-Functional eval.     ....       0.254 sec  (  0.5% of XC)
    XC-Potential eval.      ....       1.127 sec  (  2.2% of XC)
Diagonalization             ....       0.060 sec  (  0.0%)
Density matrix formation    ....      11.713 sec  (  5.9%)
Population analysis         ....       4.767 sec  (  2.4%)
Initial guess               ....       0.007 sec  (  0.0%)
Orbital Transformation      ....       0.000 sec  (  0.0%)
Orbital Orthonormalization  ....       0.004 sec  (  0.0%)
DIIS solution               ....       3.486 sec  (  1.7%)
Grid generation             ....      10.161 sec  (  5.1%)


-------------------------------------------------------------------------------
                          DFT DISPERSION CORRECTION                            
                                                                               
                              DFTD3 V3.1  Rev 1                                
                          USING Becke-Johnson damping                          
-------------------------------------------------------------------------------
The B3LYP functional is recognized
Active option DFTDOPT                   ...         4   

molecular C6(AA) [au] = 2519.015011 


            DFT-D V3
 parameters
 s6 scaling factor         :     1.0000 
 a1 scaling factor         :     0.3981 
 s8 scaling factor         :     1.9889 
 a2 scaling factor         :     4.4211 
 ad hoc parameters k1-k3   :    16.0000     1.3333    -4.0000 

 Edisp/kcal,au: -15.981088013536  -0.025467482117 
 E6   /kcal   :  -8.016779940 
 E8   /kcal   :  -7.964308074 
 % E8         :  49.835831373 

-------------------------   ----------------
Dispersion correction           -0.025467482
-------------------------   ----------------


-------------------------   --------------------
FINAL SINGLE POINT ENERGY      -236.722993914636
-------------------------   --------------------

                                *** OPTIMIZATION RUN DONE ***

                            ***************************************
                            *     ORCA property calculations      *
                            ***************************************

                                    ---------------------
                                    Active property flags
                                    ---------------------
   (+) Dipole Moment


------------------------------------------------------------------------------
                       ORCA ELECTRIC PROPERTIES CALCULATION
------------------------------------------------------------------------------

Dipole Moment Calculation                       ... on
Quadrupole Moment Calculation                   ... off
Polarizability Calculation                      ... off
GBWName                                         ... orca1.gbw
Electron density file                           ... orca1.scfp
The origin for moment calculation is the CENTER OF MASS  = (-0.031817,  0.113964 -0.103393)

-------------
DIPOLE MOMENT
-------------
                                X             Y             Z
Electronic contribution:     -0.36113      -0.62413      -1.14412
Nuclear contribution   :      0.34486       0.64126       1.12067
                        -----------------------------------------
Total Dipole Moment    :     -0.01627       0.01713      -0.02346
                        -----------------------------------------
Magnitude (a.u.)       :      0.03329
Magnitude (Debye)      :      0.08462



--------------------
Rotational spectrum 
--------------------
 
Rotational constants in cm-1:     0.206399     0.054953     0.050126 
Rotational constants in MHz :  6187.682631  1647.447134  1502.730702 

 Dipole components along the rotational axes: 
x,y,z [a.u.] :    -0.016592    -0.003194    -0.028686 
x,y,z [Debye]:    -0.042175    -0.008118    -0.072913 

 

Timings for individual modules:

Sum of individual times         ...     5590.167 sec (=  93.169 min)
GTO integral calculation        ...      156.272 sec (=   2.605 min)   2.8 %
SCF iterations                  ...     5134.123 sec (=  85.569 min)  91.8 %
SCF Gradient evaluation         ...      217.221 sec (=   3.620 min)   3.9 %
Geometry relaxation             ...       82.552 sec (=   1.376 min)   1.5 %
                             ****ORCA TERMINATED NORMALLY****
TOTAL RUN TIME: 0 days 1 hours 37 minutes 7 seconds 733 msec
