
                                 *****************
                                 * O   R   C   A *
                                 *****************

           --- An Ab Initio, DFT and Semiempirical electronic structure package ---

                  #######################################################
                  #                        -***-                        #
                  #          Department of theory and spectroscopy      #
                  #               Directorship: Frank Neese             #
                  #        Max Planck Institute fuer Kohlenforschung    #
                  #                Kaiser Wilhelm Platz 1               #
                  #                 D-45470 Muelheim/Ruhr               #
                  #                      Germany                        #
                  #                                                     #
                  #                  All rights reserved                #
                  #                        -***-                        #
                  #######################################################


                         Program Version 4.2.1 -  RELEASE  -


 With contributions from (in alphabetic order):
   Daniel Aravena         : Magnetic Suceptibility
   Michael Atanasov       : Ab Initio Ligand Field Theory (pilot matlab implementation)
   Alexander A. Auer      : GIAO ZORA, VPT2
   Ute Becker             : Parallelization
   Giovanni Bistoni       : ED, misc. LED, open-shell LED, HFLD
   Martin Brehm           : Molecular dynamics
   Dmytro Bykov           : SCF Hessian
   Vijay G. Chilkuri      : MRCI spin determinant printing, contributions to CSF-ICE
   Dipayan Datta          : RHF DLPNO-CCSD density
   Achintya Kumar Dutta   : EOM-CC, STEOM-CC
   Dmitry Ganyushin       : Spin-Orbit,Spin-Spin,Magnetic field MRCI
   Miquel Garcia          : C-PCM Hessian, Gaussian charge scheme
   Yang Guo               : DLPNO-NEVPT2, CIM, IAO-localization
   Andreas Hansen         : Spin unrestricted coupled pair/coupled cluster methods
   Benjamin Helmich-Paris : CASSCF linear response (MC-RPA)
   Lee Huntington         : MR-EOM, pCC
   Robert Izsak           : Overlap fitted RIJCOSX, COSX-SCS-MP3, EOM
   Christian Kollmar      : KDIIS, OOCD, Brueckner-CCSD(T), CCSD density
   Simone Kossmann        : Meta GGA functionals, TD-DFT gradient, OOMP2, MP2 Hessian
   Martin Krupicka        : AUTO-CI
   Lucas Lang             : DCDCAS
   Dagmar Lenk            : GEPOL surface, SMD
   Dimitrios Liakos       : Extrapolation schemes; Compound Job, initial MDCI parallelization
   Dimitrios Manganas     : Further ROCIS development; embedding schemes
   Dimitrios Pantazis     : SARC Basis sets
   Taras Petrenko         : DFT Hessian,TD-DFT gradient, ASA, ECA, R-Raman, ABS, FL, XAS/XES, NRVS
   Peter Pinski           : DLPNO-MP2, DLPNO-MP2 Gradient
   Christoph Reimann      : Effective Core Potentials
   Marius Retegan         : Local ZFS, SOC
   Christoph Riplinger    : Optimizer, TS searches, QM/MM, DLPNO-CCSD(T), (RO)-DLPNO pert. Triples
   Tobias Risthaus        : Range-separated hybrids, TD-DFT gradient, RPA, STAB
   Michael Roemelt        : Original ROCIS implementation
   Masaaki Saitow         : Open-shell DLPNO-CCSD energy and density
   Barbara Sandhoefer     : DKH picture change effects
   Avijit Sen             : IP-ROCIS
   Kantharuban Sivalingam : CASSCF convergence, NEVPT2, FIC-MRCI
   Bernardo de Souza      : ESD, SOC TD-DFT
   Georgi Stoychev        : AutoAux, RI-MP2 NMR
   Willem Van den Heuvel  : Paramagnetic NMR
   Boris Wezisla          : Elementary symmetry handling
   Frank Wennmohs         : Technical directorship


 We gratefully acknowledge several colleagues who have allowed us to
 interface, adapt or use parts of their codes:
   Stefan Grimme, W. Hujo, H. Kruse,             : VdW corrections, initial TS optimization,
                  C. Bannwarth                     DFT functionals, gCP, sTDA/sTD-DF
   Ed Valeev, F. Pavosevic, A. Kumar             : LibInt (2-el integral package), F12 methods
   Garnet Chan, S. Sharma, J. Yang, R. Olivares  : DMRG
   Ulf Ekstrom                                   : XCFun DFT Library
   Mihaly Kallay                                 : mrcc  (arbitrary order and MRCC methods)
   Andreas Klamt, Michael Diedenhofen            : otool_cosmo (COSMO solvation model)
   Jiri Pittner, Ondrej Demel                    : Mk-CCSD
   Frank Weinhold                                : gennbo (NPA and NBO analysis)
   Christopher J. Cramer and Donald G. Truhlar   : smd solvation model
   Lars Goerigk                                  : TD-DFT with DH, B97 family of functionals
   V. Asgeirsson, H. Jonsson                     : NEB implementation
   FAccTs GmbH                                   : IRC, NEB, NEB-TS, Multilevel, MM, QM/MM, CI optimization
   S Lehtola, MJT Oliveira, MAL Marques          : LibXC Library


 Your calculation uses the libint2 library for the computation of 2-el integrals
 For citations please refer to: http://libint.valeyev.net

 Your ORCA version has been built with support for libXC version: 4.2.3
 For citations please refer to: https://tddft.org/programs/libxc/

 This ORCA versions uses:
   CBLAS   interface :  Fast vector & matrix operations
   LAPACKE interface :  Fast linear algebra routines
   SCALAPACK package :  Parallel linear algebra routines


Your calculation utilizes the atom-pairwise dispersion correction
with the Becke-Johnson damping scheme (D3BJ)
Cite in your paper:
S.Grimme, S.Ehrlich, L.Goerigk, J Comput Chem, (2011), 32, 1456–1465 
S.Grimme, J.Antony, S.Ehrlich and H.Krieg, J.Chem.Phys., 132, (2010), 154104 
   

----- Orbital basis set information -----
Your calculation utilizes the basis: def2-SV(P)
   F. Weigend and R. Ahlrichs, Phys. Chem. Chem. Phys. 7, 3297 (2005).

----- AuxJ basis set information -----
Your calculation utilizes the auxiliary basis: def2/J
   F. Weigend, Phys. Chem. Chem. Phys. 8, 1057 (2006).

================================================================================
                                        WARNINGS
                       Please study these warnings very carefully!
================================================================================


WARNING: Geometry Optimization
  ===> : Switching off AutoStart
         For restart on a previous wavefunction, please use MOREAD

INFO   : the flag for use of LIBINT has been found!

================================================================================
                                       INPUT FILE
================================================================================
NAME = orca2.inp
|  1> ! UKS B3LYP def2-SV(P) def2/J D3BJ Opt
|  2> %scf Convergence VeryTight
|  3> SmearTemp 2000
|  4> maxiter 500
|  5> end
|  6> *xyz 0 2
|  7> C -0.386213 0.012156 -0.00466
|  8> O 0.928807 0.377776 -0.29938
|  9> H -0.475298 -0.61669 0.897614
| 10> H -0.738431 -0.586934 -0.859456
| 11> H -0.929863 0.978998 0.111931
| 12> *
| 13> 
| 14>                          ****END OF INPUT****
================================================================================

                       *****************************
                       * Geometry Optimization Run *
                       *****************************

Geometry optimization settings:
Update method            Update   .... BFGS
Choice of coordinates    CoordSys .... Z-matrix Internals
Initial Hessian          InHess   .... Almoef's Model

Convergence Tolerances:
Energy Change            TolE     ....  5.0000e-06 Eh
Max. Gradient            TolMAXG  ....  3.0000e-04 Eh/bohr
RMS Gradient             TolRMSG  ....  1.0000e-04 Eh/bohr
Max. Displacement        TolMAXD  ....  4.0000e-03 bohr
RMS Displacement         TolRMSD  ....  2.0000e-03 bohr
Strict Convergence                ....  False
------------------------------------------------------------------------------
                        ORCA OPTIMIZATION COORDINATE SETUP
------------------------------------------------------------------------------

The optimization will be done in new redundant internal coordinates
Making redundant internal coordinates   ...  (new redundants) done
Evaluating the initial hessian          ...  (Almloef) done
Evaluating the coordinates              ...  done
Calculating the B-matrix                .... done
Calculating the G-matrix                .... done
Diagonalizing the G-matrix              .... done
The first mode is                       ....    1
The number of degrees of freedom        ....    9

    -----------------------------------------------------------------
                    Redundant Internal Coordinates


    -----------------------------------------------------------------
         Definition                    Initial Value    Approx d2E/dq
    -----------------------------------------------------------------
      1. B(O   1,C   0)                  1.3964         0.546678   
      2. B(H   2,C   0)                  1.1034         0.342808   
      3. B(H   3,C   0)                  1.1017         0.345008   
      4. B(H   4,C   0)                  1.1153         0.328119   
      5. A(O   1,C   0,H   3)          106.2432         0.340933   
      6. A(H   2,C   0,H   3)          107.3825         0.286679   
      7. A(O   1,C   0,H   4)          104.7220         0.338088   
      8. A(H   2,C   0,H   4)          111.6671         0.284446   
      9. A(H   3,C   0,H   4)          113.3711         0.284729   
     10. A(O   1,C   0,H   2)          113.4440         0.340569   
    -----------------------------------------------------------------

Number of atoms                         .... 5
Number of degrees of freedom            .... 10

Time needed for optimization step       :     3.39 sec

         *************************************************************
         *                GEOMETRY OPTIMIZATION CYCLE   1            *
         *************************************************************
---------------------------------
CARTESIAN COORDINATES (ANGSTROEM)
---------------------------------
  C     -0.386213    0.012156   -0.004660
  O      0.928807    0.377776   -0.299380
  H     -0.475298   -0.616690    0.897614
  H     -0.738431   -0.586934   -0.859456
  H     -0.929863    0.978998    0.111931

----------------------------
CARTESIAN COORDINATES (A.U.)
----------------------------
  NO LB      ZA    FRAG     MASS         X           Y           Z
   0 C     6.0000    0    12.011   -0.729837    0.022972   -0.008806
   1 O     8.0000    0    15.999    1.755191    0.713893   -0.565746
   2 H     1.0000    0     1.008   -0.898183   -1.165375    1.696245
   3 H     1.0000    0     1.008   -1.395432   -1.109145   -1.624136
   4 H     1.0000    0     1.008   -1.757186    1.850038    0.211519

--------------------------------
INTERNAL COORDINATES (ANGSTROEM)
--------------------------------
 C      0   0   0     0.000000000000     0.00000000     0.00000000
 O      1   0   0     1.396357928040     0.00000000     0.00000000
 H      1   2   0     1.103395577305   113.44399994     0.00000000
 H      1   2   3     1.101654460001   106.24322822   242.25672720
 H      1   2   3     1.115317101431   104.72196719   122.00803069

---------------------------
INTERNAL COORDINATES (A.U.)
---------------------------
 C      0   0   0     0.000000000000     0.00000000     0.00000000
 O      1   0   0     2.638734068925     0.00000000     0.00000000
 H      1   2   0     2.085115458487   113.44399994     0.00000000
 H      1   2   3     2.081825223615   106.24322822   242.25672720
 H      1   2   3     2.107643874184   104.72196719   122.00803069

---------------------
BASIS SET INFORMATION
---------------------
There are 3 groups of distinct atoms

 Group   1 Type C   : 7s4p1d contracted to 3s2p1d pattern {511/31/1}
 Group   2 Type O   : 7s4p1d contracted to 3s2p1d pattern {511/31/1}
 Group   3 Type H   : 4s contracted to 2s pattern {31}

Atom   0C    basis set group =>   1
Atom   1O    basis set group =>   2
Atom   2H    basis set group =>   3
Atom   3H    basis set group =>   3
Atom   4H    basis set group =>   3
---------------------------------
AUXILIARY/J BASIS SET INFORMATION
---------------------------------
There are 3 groups of distinct atoms

 Group   1 Type C   : 12s5p4d2f1g contracted to 6s4p3d1f1g pattern {711111/2111/211/2/1}
 Group   2 Type O   : 12s5p4d2f1g contracted to 6s4p3d1f1g pattern {711111/2111/211/2/1}
 Group   3 Type H   : 5s2p1d contracted to 3s1p1d pattern {311/2/1}

Atom   0C    basis set group =>   1
Atom   1O    basis set group =>   2
Atom   2H    basis set group =>   3
Atom   3H    basis set group =>   3
Atom   4H    basis set group =>   3
------------------------------------------------------------------------------
                           ORCA GTO INTEGRAL CALCULATION
------------------------------------------------------------------------------

                         BASIS SET STATISTICS AND STARTUP INFO

 # of primitive gaussian shells          ...   36
 # of primitive gaussian functions       ...   60
 # of contracted shells                  ...   18
 # of contracted basis functions         ...   34
 Highest angular momentum                ...    2
 Maximum contraction depth               ...    5
 Integral package used                   ... LIBINT
 Integral threshhold            Thresh   ...  1.000e-12
 Primitive cut-off              TCut     ...  1.000e-14


------------------------------ INTEGRAL EVALUATION ----------------------------


 * One electron integrals 
 Pre-screening matrix                    ... done
 Shell pair data                         ... done (   0.000 sec)

-------------------------------------------------------------------------------
                                 ORCA SCF
-------------------------------------------------------------------------------

------------
SCF SETTINGS
------------
Hamiltonian:
 Density Functional     Method          .... DFT(GTOs)
 Exchange Functional    Exchange        .... B88
   X-Alpha parameter    XAlpha          ....  0.666667
   Becke's b parameter  XBeta           ....  0.004200
 Correlation Functional Correlation     .... LYP
 LDA part of GGA corr.  LDAOpt          .... VWN-5
 Gradients option       PostSCFGGA      .... off
 Hybrid DFT is turned on
   Fraction HF Exchange ScalHFX         ....  0.200000
   Scaling of DF-GGA-X  ScalDFX         ....  0.720000
   Scaling of DF-GGA-C  ScalDFC         ....  0.810000
   Scaling of DF-LDA-C  ScalLDAC        ....  1.000000
   Perturbative correction              ....  0.000000
   Density functional embedding theory  .... OFF
   NL short-range parameter             ....  4.800000


General Settings:
 Integral files         IntName         .... orca2
 Hartree-Fock type      HFTyp           .... UHF
 Total Charge           Charge          ....    0
 Multiplicity           Mult            ....    2
 Number of Electrons    NEL             ....   17
 Basis Dimension        Dim             ....   34
 Nuclear Repulsion      ENuc            ....     33.9193742816 Eh

Convergence Acceleration:
 DIIS                   CNVDIIS         .... on
   Start iteration      DIISMaxIt       ....    12
   Startup error        DIISStart       ....  0.200000
   # of expansion vecs  DIISMaxEq       ....     5
   Bias factor          DIISBfac        ....   1.050
   Max. coefficient     DIISMaxC        ....  10.000
 Newton-Raphson         CNVNR           .... off
 SOSCF                  CNVSOSCF        .... off
 Level Shifting         CNVShift        .... on
   Level shift para.    LevelShift      ....    0.2500
   Turn off err/grad.   ShiftErr        ....    0.0010
 Zerner damping         CNVZerner       .... off
 Static damping         CNVDamp         .... on
   Fraction old density DampFac         ....    0.7000
   Max. Damping (<1)    DampMax         ....    0.9800
   Min. Damping (>=0)   DampMin         ....    0.0000
   Turn off err/grad.   DampErr         ....    0.1000
 Fernandez-Rico         CNVRico         .... off

SCF Procedure:
 Maximum # iterations   MaxIter         ....   500
 SCF integral mode      SCFMode         .... Direct
   Integral package                     .... LIBINT
 Reset frequency        DirectResetFreq ....    20
 Integral Threshold     Thresh          ....  1.000e-12 Eh
 Primitive CutOff       TCut            ....  1.000e-14 Eh

Convergence Tolerance:
 Convergence Check Mode ConvCheckMode   .... Total+1el-Energy
 Convergence forced     ConvForced      .... 0
 Energy Change          TolE            ....  1.000e-09 Eh
 1-El. energy change                    ....  1.000e-06 Eh
 DIIS Error             TolErr          ....  1.000e-08


Diagonalization of the overlap matrix:
Smallest eigenvalue                        ... 1.224e-02
Time for diagonalization                   ...    0.668 sec
Threshold for overlap eigenvalues          ... 1.000e-08
Number of eigenvalues below threshold      ... 0
Time for construction of square roots      ...    6.947 sec
Total time needed                          ...    7.615 sec

-------------------
DFT GRID GENERATION
-------------------

General Integration Accuracy     IntAcc      ...  4.340
Radial Grid Type                 RadialGrid  ... Gauss-Chebyshev
Angular Grid (max. acc.)         AngularGrid ... Lebedev-110
Angular grid pruning method      GridPruning ... 3 (G Style)
Weight generation scheme         WeightScheme... Becke
Basis function cutoff            BFCut       ...    1.0000e-12
Integration weight cutoff        WCut        ...    1.0000e-14
Grids for H and He will be reduced by one unit

# of grid points (after initial pruning)     ...   5754 (   0.0 sec)
# of grid points (after weights+screening)   ...   5636 (   0.0 sec)
nearest neighbour list constructed           ...    0.0 sec
Grid point re-assignment to atoms done       ...    0.0 sec
Grid point division into batches done        ...    0.0 sec
Reduced shell lists constructed in    0.0 sec

Total number of grid points                  ...     5636
Total number of batches                      ...       91
Average number of points per batch           ...       61
Average number of grid points per atom       ...     1127
Average number of shells per batch           ...    16.12 (89.55%)
Average number of basis functions per batch  ...    30.71 (90.31%)
Average number of large shells per batch     ...    15.22 (94.40%)
Average number of large basis fcns per batch ...    28.70 (93.45%)
Maximum spatial batch extension              ...  25.76, 25.60, 21.59 au
Average spatial batch extension              ...   5.03,  4.92,  4.67 au

Time for grid setup =    4.039 sec

------------------------------
INITIAL GUESS: MODEL POTENTIAL
------------------------------
Loading Hartree-Fock densities                     ... done
Calculating cut-offs                               ... done
Setting up the integral package                    ... done
Initializing the effective Hamiltonian             ... done
Starting the Coulomb interaction                   ... done (   0.0 sec)
Reading the grid                                   ... done
Mapping shells                                     ... done
Starting the XC term evaluation                    ... done (   0.0 sec)
  promolecular density results
     # of electrons  =     16.997633800
     EX              =    -14.149580875
     EC              =     -0.559318202
     EX+EC           =    -14.708899078
Transforming the Hamiltonian                       ... done (   0.0 sec)
Diagonalizing the Hamiltonian                      ... done (   0.0 sec)
Back transforming the eigenvectors                 ... done (   0.0 sec)
Now organizing SCF variables                       ... done
                      ------------------
                      INITIAL GUESS DONE (   4.1 sec)
                      ------------------
--------------
SCF ITERATIONS
--------------
ITER       Energy         Delta-E        Max-DP      RMS-DP      [F,P]     Damp
               ***  Starting incremental Fock matrix formation  ***
  0   -114.8452569011   0.000000000000 0.02517077  0.00212737  0.1180018 0.7000
  1   -114.8637656485  -0.018508747382 0.01544594  0.00150206  0.0562522 0.7000
                               ***Turning on DIIS***
  2   -114.8724023398  -0.008636691365 0.02736775  0.00268391  0.0273269 0.0000
  3   -114.8866775198  -0.014275179985 0.01360837  0.00121244  0.0330191 0.0000
  4   -114.8895501767  -0.002872656864 0.00370233  0.00033380  0.0043113 0.0000
  5   -114.8896898997  -0.000139723042 0.00183678  0.00017540  0.0037565 0.0000
  6   -114.8897339326  -0.000044032922 0.00197640  0.00013283  0.0008919 0.0000
  7   -114.8897499492  -0.000016016507 0.00111242  0.00005335  0.0003379 0.0000
  8   -114.8897525169  -0.000002567758 0.00090291  0.00004164  0.0003345 0.0000
  9   -114.8897543976  -0.000001880636 0.00150130  0.00006938  0.0003277 0.0000
 10   -114.8897574560  -0.000003058413 0.00330984  0.00015315  0.0003170 0.0000
 11   -114.8897638724  -0.000006416473 0.01272015  0.00058851  0.0002932 0.0000
 12   -114.8897840216  -0.000020149146 0.00461334  0.00021746  0.0001983 0.0000
 13   -114.8897896026  -0.000005581014 0.01111030  0.00052070  0.0001637 0.0000
 14   -114.8897983986  -0.000008796012 0.00019039  0.00000900  0.0001241 0.0000
 15   -114.8897984314  -0.000000032818 0.00845254  0.00040213  0.0000773 0.0000
 16   -114.8898007743  -0.000002342841 0.00016863  0.00000976  0.0000879 0.0000
 17   -114.8898008226  -0.000000048374 0.00038035  0.00001948  0.0000287 0.0000
 18   -114.8898008361  -0.000000013478 0.00006014  0.00000314  0.0000051 0.0000
 19   -114.8898008368  -0.000000000658 0.00006440  0.00000315  0.0000018 0.0000
               *** Restarting incremental Fock matrix formation ***
                                   *** Resetting DIIS ***
 20   -114.8898008370  -0.000000000181 0.00000086  0.00000006  0.0000004 0.0000
 21   -114.8898008370  -0.000000000004 0.00000027  0.00000002  0.0000005 0.0000
                 **** Energy Check signals convergence ****

 Fermi smearing  (ALPHA): E(HOMO(Eh)) = -0.333460 MUE = -0.106465 gap=   9.393 eV
 Fermi smearing   (BETA): E(HOMO(Eh)) = -0.257009 MUE = -0.191268 gap=   3.578 eV

N_FOD(alpha) =  0.000000
 N_FOD(beta) =  0.000062
       N_FOD =  0.000062

               *****************************************************
               *                     SUCCESS                       *
               *           SCF CONVERGED AFTER  22 CYCLES          *
               *****************************************************

Setting up the final grid:

General Integration Accuracy     IntAcc      ...  4.670
Radial Grid Type                 RadialGrid  ... Gauss-Chebyshev
Angular Grid (max. acc.)         AngularGrid ... Lebedev-302
Angular grid pruning method      GridPruning ... 3 (G Style)
Weight generation scheme         WeightScheme... Becke
Basis function cutoff            BFCut       ...    1.0000e-12
Integration weight cutoff        WCut        ...    1.0000e-14
Grids for H and He will be reduced by one unit

# of grid points (after initial pruning)     ...  22606 (   0.0 sec)
# of grid points (after weights+screening)   ...  22054 (   0.0 sec)
nearest neighbour list constructed           ...    0.0 sec
Grid point re-assignment to atoms done       ...    0.0 sec
Grid point division into batches done        ...    0.1 sec
Reduced shell lists constructed in    0.1 sec

Total number of grid points                  ...    22054
Total number of batches                      ...      346
Average number of points per batch           ...       63
Average number of grid points per atom       ...     4411
Average number of shells per batch           ...    15.05 (83.62%)
Average number of basis functions per batch  ...    28.66 (84.29%)
Average number of large shells per batch     ...    13.95 (92.69%)
Average number of large basis fcns per batch ...    26.37 (92.00%)
Maximum spatial batch extension              ...  17.69, 20.64, 20.64 au
Average spatial batch extension              ...   3.22,  3.21,  3.18 au

Final grid set up in    0.7 sec
Final integration                            ... done (   8.4 sec)
Change in XC energy                          ...    -0.000232510
Integrated number of electrons               ...    16.999995367
Previous integrated no of electrons          ...    16.999115601

----------------
TOTAL SCF ENERGY
----------------

Total Energy       :         -114.89003335 Eh           -3126.31675 eV

Components:
Nuclear Repulsion  :           33.91937428 Eh             922.99310 eV
Electronic Energy  :         -148.80940763 Eh           -4049.30984 eV
One Electron Energy:         -223.37777059 Eh           -6078.41816 eV
Two Electron Energy:           74.56836296 Eh            2029.10831 eV

Virial components:
Potential Energy   :         -228.97124181 Eh           -6230.62425 eV
Kinetic Energy     :          114.08120846 Eh            3104.30750 eV
Virial Ratio       :            2.00708990


DFT components:
N(Alpha)           :        8.999994098274 electrons
N(Beta)            :        8.000001268802 electrons
N(Total)           :       16.999995367076 electrons
E(X)               :      -11.453673686314 Eh       
E(C)               :       -0.660979133830 Eh       
E(XC)              :      -12.114652820144 Eh       
DFET-embed. en.    :        0.000000000000 Eh       

---------------
SCF CONVERGENCE
---------------

  Last Energy change         ...   -1.8474e-12  Tolerance :   1.0000e-09
  Last MAX-Density change    ...    3.6317e-07  Tolerance :   1.0000e-08
  Last RMS-Density change    ...    2.3636e-08  Tolerance :   1.0000e-09
  Last DIIS Error            ...    1.2973e-07  Tolerance :   1.0000e-08

             **** THE GBW FILE WAS UPDATED (orca2.gbw) ****
             **** DENSITY FILE WAS UPDATED (orca2.scfp) ****
             **** ENERGY FILE WAS UPDATED (orca2.en.tmp) ****
             **** THE GBW FILE WAS UPDATED (orca2.gbw) ****
             **** DENSITY FILE WAS UPDATED (orca2.scfp) ****
----------------
ORBITAL ENERGIES
----------------
                 SPIN UP ORBITALS
  NO   OCC          E(Eh)            E(eV) 
   0   1.0000     -19.167327      -521.5695 
   1   1.0000     -10.232985      -278.4537 
   2   1.0000      -0.997620       -27.1466 
   3   1.0000      -0.660324       -17.9683 
   4   1.0000      -0.486499       -13.2383 
   5   1.0000      -0.453439       -12.3387 
   6   1.0000      -0.420572       -11.4443 
   7   1.0000      -0.333460        -9.0739 
   8   1.0000      -0.279053        -7.5934 
   9   0.0000       0.066122         1.7993 
  10   0.0000       0.120617         3.2822 
  11   0.0000       0.125400         3.4123 
  12   0.0000       0.152694         4.1550 
  13   0.0000       0.445497        12.1226 
  14   0.0000       0.461292        12.5524 
  15   0.0000       0.483612        13.1598 
  16   0.0000       0.639773        17.4091 
  17   0.0000       0.645486        17.5646 
  18   0.0000       0.661731        18.0066 
  19   0.0000       0.668310        18.1856 
  20   0.0000       0.926238        25.2042 
  21   0.0000       0.946853        25.7652 
  22   0.0000       1.001477        27.2516 
  23   0.0000       1.386833        37.7377 
  24   0.0000       1.599795        43.5326 
  25   0.0000       1.623585        44.1800 
  26   0.0000       2.042944        55.5913 
  27   0.0000       2.055295        55.9274 
  28   0.0000       2.065979        56.2181 
  29   0.0000       2.599638        70.7398 
  30   0.0000       2.601720        70.7964 
  31   0.0000       2.850956        77.5785 
  32   0.0000       2.902487        78.9807 
  33   0.0000       3.319416        90.3259 

                 SPIN DOWN ORBITALS
  NO   OCC          E(Eh)            E(eV) 
   0   1.0000     -19.143065      -520.9093 
   1   1.0000     -10.233704      -278.4732 
   2   1.0000      -0.943963       -25.6866 
   3   1.0000      -0.642984       -17.4965 
   4   1.0000      -0.451935       -12.2978 
   5   1.0000      -0.446146       -12.1402 
   6   1.0000      -0.398857       -10.8534 
   7   1.0000      -0.257009        -6.9936 
   8   0.0000      -0.125526        -3.4157 
   9   0.0000       0.067955         1.8492 
  10   0.0000       0.125236         3.4079 
  11   0.0000       0.127329         3.4648 
  12   0.0000       0.161955         4.4070 
  13   0.0000       0.452234        12.3059 
  14   0.0000       0.469611        12.7788 
  15   0.0000       0.489523        13.3206 
  16   0.0000       0.645592        17.5675 
  17   0.0000       0.653111        17.7720 
  18   0.0000       0.666964        18.1490 
  19   0.0000       0.668185        18.1822 
  20   0.0000       0.944245        25.6942 
  21   0.0000       1.015614        27.6363 
  22   0.0000       1.034420        28.1480 
  23   0.0000       1.410535        38.3826 
  24   0.0000       1.611142        43.8414 
  25   0.0000       1.623307        44.1724 
  26   0.0000       2.043594        55.6090 
  27   0.0000       2.060695        56.0744 
  28   0.0000       2.075310        56.4721 
  29   0.0000       2.674461        72.7758 
  30   0.0000       2.684045        73.0366 
  31   0.0000       2.913856        79.2900 
  32   0.0000       2.919630        79.4472 
  33   0.0000       3.348600        91.1200 

                    ********************************
                    * MULLIKEN POPULATION ANALYSIS *
                    ********************************

------------------------------------------
FOD BASED MULLIKEN REDUCED ORBITAL CHARGES
------------------------------------------
  0 C s       :     0.000000  s :     0.000000
      pz      :     0.000001  p :     0.000001
      px      :     0.000000
      py      :     0.000000
      dz2     :     0.000000  d :     0.000001
      dxz     :     0.000000
      dyz     :     0.000000
      dx2y2   :     0.000000
      dxy     :     0.000000
  1 O s       :    -0.000000  s :    -0.000000
      pz      :     0.000024  p :     0.000052
      px      :     0.000003
      py      :     0.000024
      dz2     :     0.000000  d :     0.000000
      dxz     :    -0.000000
      dyz     :    -0.000000
      dx2y2   :     0.000000
      dxy     :     0.000000
  2 H s       :     0.000003  s :     0.000003
  3 H s       :     0.000003  s :     0.000003
  4 H s       :     0.000003  s :     0.000003


                     *******************************
                     * LOEWDIN POPULATION ANALYSIS *
                     *******************************

-------------------------------------------
LOEWDIN ATOMIC CHARGES AND SPIN POPULATIONS
-------------------------------------------
   0 C :   -0.214960   -0.017271
   1 O :   -0.133886    0.920059
   2 H :    0.092704   -0.002357
   3 H :    0.126955    0.049443
   4 H :    0.129187    0.050126

----------------------------------------------------
LOEWDIN REDUCED ORBITAL CHARGES AND SPIN POPULATIONS
----------------------------------------------------
CHARGE
  0 C s       :     2.976275  s :     2.976275
      pz      :     1.118259  p :     3.111971
      px      :     0.895901
      py      :     1.097811
      dz2     :     0.020048  d :     0.126715
      dxz     :     0.024034
      dyz     :     0.027142
      dx2y2   :     0.027720
      dxy     :     0.027771
  1 O s       :     3.696283  s :     3.696283
      pz      :     1.640898  p :     4.420301
      px      :     1.494660
      py      :     1.284743
      dz2     :     0.002352  d :     0.017302
      dxz     :     0.003712
      dyz     :     0.000679
      dx2y2   :     0.006242
      dxy     :     0.004317
  2 H s       :     0.907296  s :     0.907296
  3 H s       :     0.873045  s :     0.873045
  4 H s       :     0.870813  s :     0.870813

SPIN
  0 C s       :    -0.006786  s :    -0.006786
      pz      :    -0.003219  p :    -0.028636
      px      :    -0.022947
      py      :    -0.002470
      dz2     :     0.000371  d :     0.018151
      dxz     :     0.004582
      dyz     :     0.000341
      dx2y2   :     0.000957
      dxy     :     0.011900
  1 O s       :     0.011080  s :     0.011080
      pz      :     0.265519  p :     0.909050
      px      :     0.023427
      py      :     0.620103
      dz2     :    -0.000052  d :    -0.000071
      dxz     :    -0.000056
      dyz     :     0.000122
      dx2y2   :    -0.000015
      dxy     :    -0.000069
  2 H s       :    -0.002357  s :    -0.002357
  3 H s       :     0.049443  s :     0.049443
  4 H s       :     0.050126  s :     0.050126


                      *****************************
                      * MAYER POPULATION ANALYSIS *
                      *****************************

  NA   - Mulliken gross atomic population
  ZA   - Total nuclear charge
  QA   - Mulliken gross atomic charge
  VA   - Mayer's total valence
  BVA  - Mayer's bonded valence
  FA   - Mayer's free valence

  ATOM       NA         ZA         QA         VA         BVA        FA
  0 C      6.1005     6.0000    -0.1005     3.9264     3.9238     0.0026
  1 O      8.2478     8.0000    -0.2478     2.0280     1.2112     0.8168
  2 H      0.9048     1.0000     0.0952     0.9387     0.9387     0.0000
  3 H      0.8754     1.0000     0.1246     0.9534     0.9494     0.0040
  4 H      0.8715     1.0000     0.1285     0.9558     0.9518     0.0040

  Mayer bond orders larger than 0.100000
B(  0-C ,  1-O ) :   1.1189 B(  0-C ,  2-H ) :   0.9450 B(  0-C ,  3-H ) :   0.9305 
B(  0-C ,  4-H ) :   0.9294 

-------
TIMINGS
-------

Total SCF time: 0 days 0 hours 10 min 36 sec 

Total time                  ....     636.177 sec
Sum of individual times     ....     490.839 sec  ( 77.2%)

Fock matrix formation       ....     382.519 sec  ( 60.1%)
  XC integration            ....     200.673 sec  ( 52.5% of F)
    Basis function eval.    ....       0.360 sec  (  0.2% of XC)
    Density eval.           ....       0.316 sec  (  0.2% of XC)
    XC-Functional eval.     ....       0.497 sec  (  0.2% of XC)
    XC-Potential eval.      ....       0.235 sec  (  0.1% of XC)
Diagonalization             ....       2.661 sec  (  0.4%)
Density matrix formation    ....      38.666 sec  (  6.1%)
Population analysis         ....      33.857 sec  (  5.3%)
Initial guess               ....       0.102 sec  (  0.0%)
Orbital Transformation      ....       0.000 sec  (  0.0%)
Orbital Orthonormalization  ....       0.000 sec  (  0.0%)
DIIS solution               ....      28.323 sec  (  4.5%)
Grid generation             ....       4.712 sec  (  0.7%)


-------------------------------------------------------------------------------
                          DFT DISPERSION CORRECTION                            
                                                                               
                              DFTD3 V3.1  Rev 1                                
                          USING Becke-Johnson damping                          
-------------------------------------------------------------------------------
The B3LYP functional is recognized
Active option DFTDOPT                   ...         4   

molecular C6(AA) [au] = 171.047456 


            DFT-D V3
 parameters
 s6 scaling factor         :     1.0000 
 a1 scaling factor         :     0.3981 
 s8 scaling factor         :     1.9889 
 a2 scaling factor         :     4.4211 
 ad hoc parameters k1-k3   :    16.0000     1.3333    -4.0000 

 Edisp/kcal,au: -1.522127813672  -0.002425664813 
 E6   /kcal   :  -0.780791239 
 E8   /kcal   :  -0.741336574 
 % E8         :  48.703963478 

-------------------------   ----------------
Dispersion correction           -0.002425665
-------------------------   ----------------


-------------------------   --------------------
FINAL SINGLE POINT ENERGY      -114.892459012000
-------------------------   --------------------

------------------------------------------------------------------------------
                         ORCA SCF GRADIENT CALCULATION
------------------------------------------------------------------------------

Gradient of the Kohn-Sham DFT energy:
Kohn-Sham wavefunction type      ... UKS
Hartree-Fock exchange scaling    ...    0.200
Number of operators              ...    2
Number of atoms                  ...    5
Basis set dimensions             ...   34
Integral neglect threshold       ... 1.0e-12
Integral primitive cutoff        ... 1.0e-14

Nuclear repulsion gradient       ... done
One Electron Gradient            ... done
Pre-screening matrix             ... done
Starting the two electron gradient:
Two electron gradient done
Exchange-correlation gradient    ... done
Dispersion correction            ... done

------------------
CARTESIAN GRADIENT
------------------

   1   C   :   -0.032479605   -0.008475515   -0.000440607
   2   O   :    0.011920316    0.005286909   -0.003985126
   3   H   :    0.002267228   -0.000126051   -0.006915626
   4   H   :    0.010253259   -0.003097130    0.007697486
   5   H   :    0.008038802    0.006411787    0.003643872

Difference to translation invariance:
           :   -0.0000000000    0.0000000000    0.0000000000

Norm of the cartesian gradient     ...    0.0407289312
RMS gradient                       ...    0.0105161648
MAX gradient                       ...    0.0324796048

-------
TIMINGS
-------

Total SCF gradient time            ...        1.418 sec

One electron gradient       ....       0.010 sec  (  0.7%)
Prescreening matrices       ....       0.009 sec  (  0.6%)
Two electron gradient       ....       0.091 sec  (  6.4%)
XC gradient                 ....       0.978 sec  ( 69.0%)
------------------------------------------------------------------------------
                         ORCA GEOMETRY RELAXATION STEP
------------------------------------------------------------------------------

Reading the OPT-File                    .... done
Getting information on internals        .... done
Copying old internal coords+grads       .... done
Making the new internal coordinates     .... (new redundants).... done
Validating the new internal coordinates .... (new redundants).... done
Calculating the B-matrix                .... done
Calculating the G,G- and P matrices     .... done
Transforming gradient to internals      .... done
Projecting the internal gradient        .... done
Number of atoms                         ....   5
Number of internal coordinates          ....  10
Current Energy                          ....  -114.892459012 Eh
Current gradient norm                   ....     0.040728931 Eh/bohr
Maximum allowed component of the step   ....  0.300
Current trust radius                    ....  0.300
Evaluating the initial hessian          ....  (Almloef) done
Projecting the Hessian                  .... done
Forming the augmented Hessian           .... done
Diagonalizing the augmented Hessian     .... done
Last element of RFO vector              ....  0.996665635
Lowest eigenvalues of augmented Hessian:
 -0.002198146  0.284740843  0.286659839  0.314624584  0.328131877
Length of the computed step             ....  0.081867163
The final length of the internal step   ....  0.081867163
Converting the step to cartesian space:
 Initial RMS(Int)=    0.0258886701
Transforming coordinates:
 Iter   0:  RMS(Cart)=    0.0206292202 RMS(Int)=    0.0259034529
 Iter   1:  RMS(Cart)=    0.0004392817 RMS(Int)=    0.0005451799
 Iter   2:  RMS(Cart)=    0.0000083027 RMS(Int)=    0.0000104038
 Iter   3:  RMS(Cart)=    0.0000003092 RMS(Int)=    0.0000003776
 Iter   4:  RMS(Cart)=    0.0000000064 RMS(Int)=    0.0000000076
done
Storing new coordinates                 .... done

                                .--------------------.
          ----------------------|Geometry convergence|-------------------------
          Item                value                   Tolerance       Converged
          ---------------------------------------------------------------------
          RMS gradient        0.0086938538            0.0001000000      NO
          MAX gradient        0.0172855723            0.0003000000      NO
          RMS step            0.0258886701            0.0020000000      NO
          MAX step            0.0584812806            0.0040000000      NO
          ........................................................
          Max(Bonds)      0.0130      Max(Angles)    3.35
          Max(Dihed)        0.00      Max(Improp)    0.00
          ---------------------------------------------------------------------

The optimization has not yet converged - more geometry cycles are needed


    ---------------------------------------------------------------------------
                         Redundant Internal Coordinates
                            (Angstroem and degrees)

        Definition                    Value    dE/dq     Step     New-Value
    ----------------------------------------------------------------------------
     1. B(O   1,C   0)                1.3964  0.013451 -0.0130    1.3834   
     2. B(H   2,C   0)                1.1034 -0.005767  0.0088    1.1122   
     3. B(H   3,C   0)                1.1017 -0.007567  0.0115    1.1132   
     4. B(H   4,C   0)                1.1153  0.002021 -0.0032    1.1121   
     5. A(O   1,C   0,H   3)          106.24 -0.006308    1.14    107.38   
     6. A(H   2,C   0,H   3)          107.38 -0.004579    1.02    108.40   
     7. A(O   1,C   0,H   4)          104.72 -0.009309    1.65    106.38   
     8. A(H   2,C   0,H   4)          111.67  0.005292   -0.95    110.72   
     9. A(H   3,C   0,H   4)          113.37  0.017286   -3.35    110.02   
    10. A(O   1,C   0,H   2)          113.44 -0.002468    0.50    113.94   
    ----------------------------------------------------------------------------

Time needed for optimization step       :    14.95 sec

         *************************************************************
         *                GEOMETRY OPTIMIZATION CYCLE   2            *
         *************************************************************
---------------------------------
CARTESIAN COORDINATES (ANGSTROEM)
---------------------------------
  C     -0.369233    0.012597   -0.003237
  O      0.934131    0.373523   -0.294339
  H     -0.470880   -0.611391    0.911851
  H     -0.754158   -0.570132   -0.870097
  H     -0.940858    0.960709    0.101871

----------------------------
CARTESIAN COORDINATES (A.U.)
----------------------------
  NO LB      ZA    FRAG     MASS         X           Y           Z
   0 C     6.0000    0    12.011   -0.697750    0.023805   -0.006117
   1 O     8.0000    0    15.999    1.765252    0.705856   -0.556220
   2 H     1.0000    0     1.008   -0.889835   -1.155362    1.723148
   3 H     1.0000    0     1.008   -1.425151   -1.077392   -1.644245
   4 H     1.0000    0     1.008   -1.777964    1.815477    0.192509

--------------------------------
INTERNAL COORDINATES (ANGSTROEM)
--------------------------------
 C      0   0   0     0.000000000000     0.00000000     0.00000000
 O      1   0   0     1.383389331284     0.00000000     0.00000000
 H      1   2   0     1.112240520970   113.92869501     0.00000000
 H      1   2   3     1.113187073556   107.36723969   239.97858224
 H      1   2   3     1.112078834587   106.36389285   122.23793401

---------------------------
INTERNAL COORDINATES (A.U.)
---------------------------
 C      0   0   0     0.000000000000     0.00000000     0.00000000
 O      1   0   0     2.614226972715     0.00000000     0.00000000
 H      1   2   0     2.101829979684   113.92869501     0.00000000
 H      1   2   3     2.103618704842   107.36723969   239.97858224
 H      1   2   3     2.101524436699   106.36389285   122.23793401


Diagonalization of the overlap matrix:
Smallest eigenvalue                        ... 1.243e-02
Time for diagonalization                   ...    0.001 sec
Threshold for overlap eigenvalues          ... 1.000e-08
Number of eigenvalues below threshold      ... 0
Time for construction of square roots      ...    2.096 sec
Total time needed                          ...    2.097 sec

-------------------
DFT GRID GENERATION
-------------------

General Integration Accuracy     IntAcc      ...  4.340
Radial Grid Type                 RadialGrid  ... Gauss-Chebyshev
Angular Grid (max. acc.)         AngularGrid ... Lebedev-110
Angular grid pruning method      GridPruning ... 3 (G Style)
Weight generation scheme         WeightScheme... Becke
Basis function cutoff            BFCut       ...    1.0000e-12
Integration weight cutoff        WCut        ...    1.0000e-14
Grids for H and He will be reduced by one unit

# of grid points (after initial pruning)     ...   5754 (   0.0 sec)
# of grid points (after weights+screening)   ...   5637 (   0.0 sec)
nearest neighbour list constructed           ...    0.0 sec
Grid point re-assignment to atoms done       ...    0.0 sec
Grid point division into batches done        ...    0.0 sec
Reduced shell lists constructed in    0.0 sec

Total number of grid points                  ...     5637
Total number of batches                      ...       90
Average number of points per batch           ...       62
Average number of grid points per atom       ...     1127
Average number of shells per batch           ...    16.14 (89.68%)
Average number of basis functions per batch  ...    30.76 (90.47%)
Average number of large shells per batch     ...    15.25 (94.49%)
Average number of large basis fcns per batch ...    28.81 (93.68%)
Maximum spatial batch extension              ...  25.74, 25.60, 22.87 au
Average spatial batch extension              ...   5.12,  4.88,  4.72 au

Time for grid setup =    1.205 sec

--------------
SCF ITERATIONS
--------------
ITER       Energy         Delta-E        Max-DP      RMS-DP      [F,P]     Damp
               ***  Starting incremental Fock matrix formation  ***
  0   -114.8912947853   0.000000000000 0.00092775  0.00011164  0.0061528 0.7000
  1   -114.8913591194  -0.000064334071 0.00087685  0.00010256  0.0044482 0.7000
                               ***Turning on DIIS***
  2   -114.8914084416  -0.000049322196 0.00225960  0.00026856  0.0032746 0.0000
  3   -114.8915321339  -0.000123692372 0.00063359  0.00006788  0.0008940 0.0000
  4   -114.8915359311  -0.000003797177 0.00031677  0.00002690  0.0007492 0.0000
  5   -114.8915368792  -0.000000948089 0.00013762  0.00001410  0.0003998 0.0000
  6   -114.8915371667  -0.000000287525 0.00015336  0.00000722  0.0000498 0.0000
  7   -114.8915372208  -0.000000054132 0.00008778  0.00000457  0.0000450 0.0000
  8   -114.8915372488  -0.000000027943 0.00011494  0.00000542  0.0000428 0.0000
  9   -114.8915372798  -0.000000031029 0.00020269  0.00000980  0.0000407 0.0000
 10   -114.8915373332  -0.000000053348 0.00048530  0.00002348  0.0000379 0.0000
 11   -114.8915374500  -0.000000116799 0.00102443  0.00004989  0.0000323 0.0000
 12   -114.8915376471  -0.000000197148 0.00095687  0.00004650  0.0000216 0.0000
 13   -114.8915377684  -0.000000121268 0.00093265  0.00004574  0.0000123 0.0000
 14   -114.8915378286  -0.000000060241 0.00042155  0.00002072  0.0000040 0.0000
 15   -114.8915378365  -0.000000007898 0.00005996  0.00000297  0.0000013 0.0000
 16   -114.8915378367  -0.000000000132 0.00000554  0.00000030  0.0000007 0.0000
 17   -114.8915378367   0.000000000001 0.00000439  0.00000021  0.0000002 0.0000
                 **** Energy Check signals convergence ****

 Fermi smearing  (ALPHA): E(HOMO(Eh)) = -0.331553 MUE = -0.106880 gap=   9.401 eV
 Fermi smearing   (BETA): E(HOMO(Eh)) = -0.257806 MUE = -0.192667 gap=   3.545 eV

N_FOD(alpha) =  0.000000
 N_FOD(beta) =  0.000068
       N_FOD =  0.000068

               *****************************************************
               *                     SUCCESS                       *
               *           SCF CONVERGED AFTER  18 CYCLES          *
               *****************************************************

Setting up the final grid:

General Integration Accuracy     IntAcc      ...  4.670
Radial Grid Type                 RadialGrid  ... Gauss-Chebyshev
Angular Grid (max. acc.)         AngularGrid ... Lebedev-302
Angular grid pruning method      GridPruning ... 3 (G Style)
Weight generation scheme         WeightScheme... Becke
Basis function cutoff            BFCut       ...    1.0000e-12
Integration weight cutoff        WCut        ...    1.0000e-14
Grids for H and He will be reduced by one unit

# of grid points (after initial pruning)     ...  22606 (   0.0 sec)
# of grid points (after weights+screening)   ...  22053 (   0.0 sec)
nearest neighbour list constructed           ...    0.0 sec
Grid point re-assignment to atoms done       ...    0.0 sec
Grid point division into batches done        ...    0.1 sec
Reduced shell lists constructed in    0.1 sec

Total number of grid points                  ...    22053
Total number of batches                      ...      347
Average number of points per batch           ...       63
Average number of grid points per atom       ...     4411
Average number of shells per batch           ...    15.07 (83.75%)
Average number of basis functions per batch  ...    28.69 (84.38%)
Average number of large shells per batch     ...    13.96 (92.58%)
Average number of large basis fcns per batch ...    26.37 (91.92%)
Maximum spatial batch extension              ...  17.67, 20.64, 20.64 au
Average spatial batch extension              ...   3.21,  3.16,  3.18 au

Final grid set up in    1.9 sec
Final integration                            ... done (  20.8 sec)
Change in XC energy                          ...    -0.000222800
Integrated number of electrons               ...    16.999994612
Previous integrated no of electrons          ...    16.999179486
Total Energy       :         -114.89176064 Eh           -3126.36375 eV
  Last Energy change         ...   -3.0127e-12  Tolerance :   1.0000e-09
  Last MAX-Density change    ...    2.0634e-06  Tolerance :   1.0000e-08
             **** THE GBW FILE WAS UPDATED (orca2.gbw) ****
             **** DENSITY FILE WAS UPDATED (orca2.scfp) ****
             **** ENERGY FILE WAS UPDATED (orca2.en.tmp) ****
             **** THE GBW FILE WAS UPDATED (orca2.gbw) ****
             **** DENSITY FILE WAS UPDATED (orca2.scfp) ****
Total SCF time: 0 days 0 hours 7 min 49 sec 


-------------------------------------------------------------------------------
                          DFT DISPERSION CORRECTION                            
                                                                               
                              DFTD3 V3.1  Rev 1                                
                          USING Becke-Johnson damping                          
-------------------------------------------------------------------------------
-------------------------   ----------------
Dispersion correction           -0.002425412
-------------------------   ----------------


-------------------------   --------------------
FINAL SINGLE POINT ENERGY      -114.894186048855
-------------------------   --------------------

------------------------------------------------------------------------------
                         ORCA SCF GRADIENT CALCULATION
------------------------------------------------------------------------------

Gradient of the Kohn-Sham DFT energy:
Kohn-Sham wavefunction type      ... UKS
Hartree-Fock exchange scaling    ...    0.200
Number of operators              ...    2
Number of atoms                  ...    5
Basis set dimensions             ...   34
Integral neglect threshold       ... 1.0e-12
Integral primitive cutoff        ... 1.0e-14

Nuclear repulsion gradient       ... done
One Electron Gradient            ... done
Pre-screening matrix             ... done
Starting the two electron gradient:
Two electron gradient done
Exchange-correlation gradient    ... done
Dispersion correction            ... done

------------------
CARTESIAN GRADIENT
------------------

   1   C   :   -0.022187605   -0.000156786    0.000069673
   2   O   :    0.009113106    0.003427020   -0.002588565
   3   H   :    0.001632986   -0.001542689   -0.001504973
   4   H   :    0.005383782   -0.003896244    0.001674064
   5   H   :    0.006057730    0.002168699    0.002349800

Difference to translation invariance:
           :   -0.0000000000    0.0000000000    0.0000000000

Norm of the cartesian gradient     ...    0.0263631144
RMS gradient                       ...    0.0068069269
MAX gradient                       ...    0.0221876050

-------
TIMINGS
-------

Total SCF gradient time            ...        0.861 sec

One electron gradient       ....       0.003 sec  (  0.4%)
Prescreening matrices       ....       0.008 sec  (  0.9%)
Two electron gradient       ....       0.073 sec  (  8.5%)
XC gradient                 ....       0.566 sec  ( 65.8%)
------------------------------------------------------------------------------
                         ORCA GEOMETRY RELAXATION STEP
------------------------------------------------------------------------------

Reading the OPT-File                    .... done
Getting information on internals        .... done
Copying old internal coords+grads       .... done
Making the new internal coordinates     .... (new redundants).... done
Validating the new internal coordinates .... (new redundants).... done
Calculating the B-matrix                .... done
Calculating the G,G- and P matrices     .... done
Transforming gradient to internals      .... done
Projecting the internal gradient        .... done
Number of atoms                         ....   5
Number of internal coordinates          ....  10
Current Energy                          ....  -114.894186049 Eh
Current gradient norm                   ....     0.026363114 Eh/bohr
Maximum allowed component of the step   ....  0.300
Current trust radius                    ....  0.300
Updating the Hessian (BFGS)             .... done
Forming the augmented Hessian           .... done
Diagonalizing the augmented Hessian     .... done
Last element of RFO vector              ....  0.991090356
Lowest eigenvalues of augmented Hessian:
 -0.002232186  0.120648897  0.285271424  0.301660355  0.330050999
Length of the computed step             ....  0.134388593
The final length of the internal step   ....  0.134388593
Converting the step to cartesian space:
 Initial RMS(Int)=    0.0424974046
Transforming coordinates:
 Iter   0:  RMS(Cart)=    0.0330073109 RMS(Int)=    0.0424811274
 Iter   1:  RMS(Cart)=    0.0012505384 RMS(Int)=    0.0015816597
 Iter   2:  RMS(Cart)=    0.0000469828 RMS(Int)=    0.0000544341
 Iter   3:  RMS(Cart)=    0.0000031472 RMS(Int)=    0.0000038150
 Iter   4:  RMS(Cart)=    0.0000001206 RMS(Int)=    0.0000001471
 Iter   5:  RMS(Cart)=    0.0000000085 RMS(Int)=    0.0000000100
done
Storing new coordinates                 .... done

                                .--------------------.
          ----------------------|Geometry convergence|-------------------------
          Item                value                   Tolerance       Converged
          ---------------------------------------------------------------------
          Energy change      -0.0017270369            0.0000050000      NO
          RMS gradient        0.0054344904            0.0001000000      NO
          MAX gradient        0.0113055273            0.0003000000      NO
          RMS step            0.0424974046            0.0020000000      NO
          MAX step            0.1023196544            0.0040000000      NO
          ........................................................
          Max(Bonds)      0.0256      Max(Angles)    5.86
          Max(Dihed)        0.00      Max(Improp)    0.00
          ---------------------------------------------------------------------

The optimization has not yet converged - more geometry cycles are needed


    ---------------------------------------------------------------------------
                         Redundant Internal Coordinates
                            (Angstroem and degrees)

        Definition                    Value    dE/dq     Step     New-Value
    ----------------------------------------------------------------------------
     1. B(O   1,C   0)                1.3834  0.010025 -0.0256    1.3577   
     2. B(H   2,C   0)                1.1122 -0.000522  0.0038    1.1160   
     3. B(H   3,C   0)                1.1132 -0.001126  0.0065    1.1197   
     4. B(H   4,C   0)                1.1121 -0.001042  0.0033    1.1153   
     5. A(O   1,C   0,H   3)          107.37 -0.003870    1.91    109.28   
     6. A(H   2,C   0,H   3)          108.39 -0.002338    1.50    109.88   
     7. A(O   1,C   0,H   4)          106.36 -0.005314    2.62    108.98   
     8. A(H   2,C   0,H   4)          110.71  0.003125   -1.48    109.22   
     9. A(H   3,C   0,H   4)          110.01  0.011306   -5.86    104.15   
    10. A(O   1,C   0,H   2)          113.93 -0.002440    1.22    115.14   
    ----------------------------------------------------------------------------

Time needed for optimization step       :     4.98 sec

         *************************************************************
         *                GEOMETRY OPTIMIZATION CYCLE   3            *
         *************************************************************
---------------------------------
CARTESIAN COORDINATES (ANGSTROEM)
---------------------------------
  C     -0.339344    0.008556   -0.000099
  O      0.939219    0.364124   -0.286992
  H     -0.464145   -0.601784    0.925856
  H     -0.775586   -0.536352   -0.875588
  H     -0.961142    0.930762    0.082872

----------------------------
CARTESIAN COORDINATES (A.U.)
----------------------------
  NO LB      ZA    FRAG     MASS         X           Y           Z
   0 C     6.0000    0    12.011   -0.641267    0.016168   -0.000187
   1 O     8.0000    0    15.999    1.774866    0.688095   -0.542337
   2 H     1.0000    0     1.008   -0.877107   -1.137207    1.749614
   3 H     1.0000    0     1.008   -1.465645   -1.013558   -1.654621
   4 H     1.0000    0     1.008   -1.816295    1.758886    0.156604

--------------------------------
INTERNAL COORDINATES (ANGSTROEM)
--------------------------------
 C      0   0   0     0.000000000000     0.00000000     0.00000000
 O      1   0   0     1.357740503570     0.00000000     0.00000000
 H      1   2   0     1.116011744851   115.07762296     0.00000000
 H      1   2   3     1.119692772871   109.21525002   235.97935908
 H      1   2   3     1.115339240843   108.91527370   122.90965887

---------------------------
INTERNAL COORDINATES (A.U.)
---------------------------
 C      0   0   0     0.000000000000     0.00000000     0.00000000
 O      1   0   0     2.565757712680     0.00000000     0.00000000
 H      1   2   0     2.108956560008   115.07762296     0.00000000
 H      1   2   3     2.115912694857   109.21525002   235.97935908
 H      1   2   3     2.107685711609   108.91527370   122.90965887


Diagonalization of the overlap matrix:
Smallest eigenvalue                        ... 1.262e-02
Time for diagonalization                   ...    0.000 sec
Threshold for overlap eigenvalues          ... 1.000e-08
Number of eigenvalues below threshold      ... 0
Time for construction of square roots      ...    4.187 sec
Total time needed                          ...    4.188 sec

-------------------
DFT GRID GENERATION
-------------------

General Integration Accuracy     IntAcc      ...  4.340
Radial Grid Type                 RadialGrid  ... Gauss-Chebyshev
Angular Grid (max. acc.)         AngularGrid ... Lebedev-110
Angular grid pruning method      GridPruning ... 3 (G Style)
Weight generation scheme         WeightScheme... Becke
Basis function cutoff            BFCut       ...    1.0000e-12
Integration weight cutoff        WCut        ...    1.0000e-14
Grids for H and He will be reduced by one unit

# of grid points (after initial pruning)     ...   5754 (   0.0 sec)
# of grid points (after weights+screening)   ...   5635 (   0.0 sec)
nearest neighbour list constructed           ...    0.0 sec
Grid point re-assignment to atoms done       ...    0.0 sec
Grid point division into batches done        ...    0.0 sec
Reduced shell lists constructed in    0.0 sec

Total number of grid points                  ...     5635
Total number of batches                      ...       90
Average number of points per batch           ...       62
Average number of grid points per atom       ...     1127
Average number of shells per batch           ...    16.13 (89.62%)
Average number of basis functions per batch  ...    30.75 (90.43%)
Average number of large shells per batch     ...    15.25 (94.55%)
Average number of large basis fcns per batch ...    28.84 (93.78%)
Maximum spatial batch extension              ...  25.69, 25.60, 22.92 au
Average spatial batch extension              ...   5.08,  4.91,  4.53 au

Time for grid setup =    4.204 sec

--------------
SCF ITERATIONS
--------------
ITER       Energy         Delta-E        Max-DP      RMS-DP      [F,P]     Damp
               ***  Starting incremental Fock matrix formation  ***
  0   -114.8920046019   0.000000000000 0.00145559  0.00017884  0.0102735 0.7000
  1   -114.8921988399  -0.000194237957 0.00140433  0.00016980  0.0077536 0.7000
                               ***Turning on DIIS***
  2   -114.8923520324  -0.000153192536 0.00377207  0.00045856  0.0058265 0.0000
  3   -114.8927471095  -0.000395077082 0.00084265  0.00008934  0.0013644 0.0000
  4   -114.8927589622  -0.000011852714 0.00077221  0.00006750  0.0008683 0.0000
  5   -114.8927645420  -0.000005579770 0.00035643  0.00003335  0.0007896 0.0000
  6   -114.8927659430  -0.000001401037 0.00034878  0.00001865  0.0001125 0.0000
  7   -114.8927662565  -0.000000313467 0.00022151  0.00001066  0.0001061 0.0000
  8   -114.8927664141  -0.000000157655 0.00029490  0.00001467  0.0001024 0.0000
  9   -114.8927666201  -0.000000205969 0.00072342  0.00003583  0.0000975 0.0000
 10   -114.8927670866  -0.000000466550 0.00184309  0.00009155  0.0000869 0.0000
 11   -114.8927680609  -0.000000974298 0.00206754  0.00010411  0.0000614 0.0000
 12   -114.8927687892  -0.000000728296 0.00160385  0.00008026  0.0000360 0.0000
 13   -114.8927690765  -0.000000287255 0.00092969  0.00004737  0.0000124 0.0000
 14   -114.8927691321  -0.000000055644 0.00010448  0.00000541  0.0000031 0.0000
 15   -114.8927691333  -0.000000001131 0.00002268  0.00000125  0.0000018 0.0000
 16   -114.8927691333  -0.000000000085 0.00000552  0.00000031  0.0000005 0.0000
 17   -114.8927691333  -0.000000000006 0.00000207  0.00000010  0.0000003 0.0000
 18   -114.8927691334  -0.000000000005 0.00000252  0.00000012  0.0000002 0.0000
                 **** Energy Check signals convergence ****

 Fermi smearing  (ALPHA): E(HOMO(Eh)) = -0.326579 MUE = -0.107519 gap=   9.400 eV
 Fermi smearing   (BETA): E(HOMO(Eh)) = -0.258828 MUE = -0.194543 gap=   3.499 eV

N_FOD(alpha) =  0.000000
 N_FOD(beta) =  0.000078
       N_FOD =  0.000078

               *****************************************************
               *                     SUCCESS                       *
               *           SCF CONVERGED AFTER  19 CYCLES          *
               *****************************************************

Setting up the final grid:

General Integration Accuracy     IntAcc      ...  4.670
Radial Grid Type                 RadialGrid  ... Gauss-Chebyshev
Angular Grid (max. acc.)         AngularGrid ... Lebedev-302
Angular grid pruning method      GridPruning ... 3 (G Style)
Weight generation scheme         WeightScheme... Becke
Basis function cutoff            BFCut       ...    1.0000e-12
Integration weight cutoff        WCut        ...    1.0000e-14
Grids for H and He will be reduced by one unit

# of grid points (after initial pruning)     ...  22606 (   0.0 sec)
# of grid points (after weights+screening)   ...  22047 (   0.0 sec)
nearest neighbour list constructed           ...    0.0 sec
Grid point re-assignment to atoms done       ...    0.0 sec
Grid point division into batches done        ...    0.1 sec
Reduced shell lists constructed in    0.2 sec

Total number of grid points                  ...    22047
Total number of batches                      ...      348
Average number of points per batch           ...       63
Average number of grid points per atom       ...     4409
Average number of shells per batch           ...    15.05 (83.62%)
Average number of basis functions per batch  ...    28.63 (84.22%)
Average number of large shells per batch     ...    14.02 (93.17%)
Average number of large basis fcns per batch ...    26.47 (92.44%)
Maximum spatial batch extension              ...  17.62, 20.64, 17.57 au
Average spatial batch extension              ...   3.17,  3.22,  3.11 au

Final grid set up in    1.7 sec
Final integration                            ... done (   8.5 sec)
Change in XC energy                          ...    -0.000167319
Integrated number of electrons               ...    16.999993054
Previous integrated no of electrons          ...    16.999388906
Total Energy       :         -114.89293645 Eh           -3126.39574 eV
  Last Energy change         ...    5.3575e-12  Tolerance :   1.0000e-09
  Last MAX-Density change    ...    1.7268e-06  Tolerance :   1.0000e-08
             **** THE GBW FILE WAS UPDATED (orca2.gbw) ****
             **** DENSITY FILE WAS UPDATED (orca2.scfp) ****
             **** ENERGY FILE WAS UPDATED (orca2.en.tmp) ****
             **** THE GBW FILE WAS UPDATED (orca2.gbw) ****
             **** DENSITY FILE WAS UPDATED (orca2.scfp) ****
Total SCF time: 0 days 0 hours 8 min 23 sec 


-------------------------------------------------------------------------------
                          DFT DISPERSION CORRECTION                            
                                                                               
                              DFTD3 V3.1  Rev 1                                
                          USING Becke-Johnson damping                          
-------------------------------------------------------------------------------
-------------------------   ----------------
Dispersion correction           -0.002425922
-------------------------   ----------------


-------------------------   --------------------
FINAL SINGLE POINT ENERGY      -114.895362374650
-------------------------   --------------------

------------------------------------------------------------------------------
                         ORCA SCF GRADIENT CALCULATION
------------------------------------------------------------------------------

Gradient of the Kohn-Sham DFT energy:
Kohn-Sham wavefunction type      ... UKS
Hartree-Fock exchange scaling    ...    0.200
Number of operators              ...    2
Number of atoms                  ...    5
Basis set dimensions             ...   34
Integral neglect threshold       ... 1.0e-12
Integral primitive cutoff        ... 1.0e-14

Nuclear repulsion gradient       ... done
One Electron Gradient            ... done
Pre-screening matrix             ... done
Starting the two electron gradient:
Two electron gradient done
Exchange-correlation gradient    ... done
Dispersion correction            ... done

------------------
CARTESIAN GRADIENT
------------------

   1   C   :   -0.002674623    0.002757511   -0.000479743
   2   O   :    0.000564346   -0.000513965    0.000044119
   3   H   :    0.000713695   -0.000409770    0.001211260
   4   H   :    0.000417691   -0.000446302   -0.001025571
   5   H   :    0.000978891   -0.001387474    0.000249935

Difference to translation invariance:
           :    0.0000000000    0.0000000000   -0.0000000000

Norm of the cartesian gradient     ...    0.0046997732
RMS gradient                       ...    0.0012134762
MAX gradient                       ...    0.0027575108

-------
TIMINGS
-------

Total SCF gradient time            ...        0.724 sec

One electron gradient       ....       0.003 sec  (  0.4%)
Prescreening matrices       ....       0.008 sec  (  1.1%)
Two electron gradient       ....       0.077 sec  ( 10.6%)
XC gradient                 ....       0.400 sec  ( 55.3%)
------------------------------------------------------------------------------
                         ORCA GEOMETRY RELAXATION STEP
------------------------------------------------------------------------------

Reading the OPT-File                    .... done
Getting information on internals        .... done
Copying old internal coords+grads       .... done
Making the new internal coordinates     .... (new redundants).... done
Validating the new internal coordinates .... (new redundants).... done
Calculating the B-matrix                .... done
Calculating the G,G- and P matrices     .... done
Transforming gradient to internals      .... done
Projecting the internal gradient        .... done
Number of atoms                         ....   5
Number of internal coordinates          ....  10
Current Energy                          ....  -114.895362375 Eh
Current gradient norm                   ....     0.004699773 Eh/bohr
Maximum allowed component of the step   ....  0.300
Current trust radius                    ....  0.300
Updating the Hessian (BFGS)             .... done
Forming the augmented Hessian           .... done
Diagonalizing the augmented Hessian     .... done
Last element of RFO vector              ....  0.999918066
Lowest eigenvalues of augmented Hessian:
 -0.000033857  0.112601597  0.285408822  0.301160635  0.330209956
Length of the computed step             ....  0.012801901
The final length of the internal step   ....  0.012801901
Converting the step to cartesian space:
 Initial RMS(Int)=    0.0040483166
Transforming coordinates:
 Iter   0:  RMS(Cart)=    0.0026437550 RMS(Int)=    0.0040462059
 Iter   1:  RMS(Cart)=    0.0000118024 RMS(Int)=    0.0000143973
 Iter   2:  RMS(Cart)=    0.0000000308 RMS(Int)=    0.0000000415
done
Storing new coordinates                 .... done

                                .--------------------.
          ----------------------|Geometry convergence|-------------------------
          Item                value                   Tolerance       Converged
          ---------------------------------------------------------------------
          Energy change      -0.0011763258            0.0000050000      NO
          RMS gradient        0.0009737088            0.0001000000      NO
          MAX gradient        0.0016740234            0.0003000000      NO
          RMS step            0.0040483166            0.0020000000      NO
          MAX step            0.0081922521            0.0040000000      NO
          ........................................................
          Max(Bonds)      0.0028      Max(Angles)    0.47
          Max(Dihed)        0.00      Max(Improp)    0.00
          ---------------------------------------------------------------------

The optimization has not yet converged - more geometry cycles are needed


    ---------------------------------------------------------------------------
                         Redundant Internal Coordinates
                            (Angstroem and degrees)

        Definition                    Value    dE/dq     Step     New-Value
    ----------------------------------------------------------------------------
     1. B(O   1,C   0)                1.3577  0.000387 -0.0015    1.3562   
     2. B(H   2,C   0)                1.1160  0.001149 -0.0014    1.1146   
     3. B(H   3,C   0)                1.1197  0.000856 -0.0007    1.1190   
     4. B(H   4,C   0)                1.1153 -0.001674  0.0028    1.1181   
     5. A(O   1,C   0,H   3)          109.22 -0.000859    0.26    109.47   
     6. A(H   2,C   0,H   3)          109.82  0.000736   -0.06    109.76   
     7. A(O   1,C   0,H   4)          108.92  0.000595    0.04    108.95   
     8. A(H   2,C   0,H   4)          109.16  0.000139   -0.09    109.07   
     9. A(H   3,C   0,H   4)          104.08  0.000988   -0.47    103.61   
    10. A(O   1,C   0,H   2)          115.08 -0.001359    0.30    115.38   
    ----------------------------------------------------------------------------

Time needed for optimization step       :     4.19 sec

         *************************************************************
         *                GEOMETRY OPTIMIZATION CYCLE   4            *
         *************************************************************
---------------------------------
CARTESIAN COORDINATES (ANGSTROEM)
---------------------------------
  C     -0.336274    0.007137    0.000431
  O      0.939996    0.364786   -0.286844
  H     -0.464935   -0.602016    0.924959
  H     -0.777391   -0.534584   -0.873665
  H     -0.962393    0.929983    0.081169

----------------------------
CARTESIAN COORDINATES (A.U.)
----------------------------
  NO LB      ZA    FRAG     MASS         X           Y           Z
   0 C     6.0000    0    12.011   -0.635466    0.013486    0.000814
   1 O     8.0000    0    15.999    1.776335    0.689346   -0.542057
   2 H     1.0000    0     1.008   -0.878601   -1.137646    1.747919
   3 H     1.0000    0     1.008   -1.469056   -1.010217   -1.650988
   4 H     1.0000    0     1.008   -1.818660    1.757414    0.153386

--------------------------------
INTERNAL COORDINATES (ANGSTROEM)
--------------------------------
 C      0   0   0     0.000000000000     0.00000000     0.00000000
 O      1   0   0     1.356210027778     0.00000000     0.00000000
 H      1   2   0     1.114617672072   115.36900795     0.00000000
 H      1   2   3     1.118967591467   109.46208657   235.65789799
 H      1   2   3     1.118118784885   108.94175284   123.01144660

---------------------------
INTERNAL COORDINATES (A.U.)
---------------------------
 C      0   0   0     0.000000000000     0.00000000     0.00000000
 O      1   0   0     2.562865532579     0.00000000     0.00000000
 H      1   2   0     2.106322144244   115.36900795     0.00000000
 H      1   2   3     2.114542300605   109.46208657   235.65789799
 H      1   2   3     2.112938288625   108.94175284   123.01144660


Diagonalization of the overlap matrix:
Smallest eigenvalue                        ... 1.265e-02
Time for diagonalization                   ...    0.000 sec
Threshold for overlap eigenvalues          ... 1.000e-08
Number of eigenvalues below threshold      ... 0
Time for construction of square roots      ...    0.310 sec
Total time needed                          ...    0.310 sec

-------------------
DFT GRID GENERATION
-------------------

General Integration Accuracy     IntAcc      ...  4.340
Radial Grid Type                 RadialGrid  ... Gauss-Chebyshev
Angular Grid (max. acc.)         AngularGrid ... Lebedev-110
Angular grid pruning method      GridPruning ... 3 (G Style)
Weight generation scheme         WeightScheme... Becke
Basis function cutoff            BFCut       ...    1.0000e-12
Integration weight cutoff        WCut        ...    1.0000e-14
Grids for H and He will be reduced by one unit

# of grid points (after initial pruning)     ...   5754 (   0.0 sec)
# of grid points (after weights+screening)   ...   5633 (   0.0 sec)
nearest neighbour list constructed           ...    0.0 sec
Grid point re-assignment to atoms done       ...    0.0 sec
Grid point division into batches done        ...    0.0 sec
Reduced shell lists constructed in    0.0 sec

Total number of grid points                  ...     5633
Total number of batches                      ...       90
Average number of points per batch           ...       62
Average number of grid points per atom       ...     1127
Average number of shells per batch           ...    16.13 (89.62%)
Average number of basis functions per batch  ...    30.75 (90.43%)
Average number of large shells per batch     ...    15.24 (94.48%)
Average number of large basis fcns per batch ...    28.87 (93.89%)
Maximum spatial batch extension              ...  25.69, 25.60, 22.92 au
Average spatial batch extension              ...   5.12,  4.97,  4.55 au

Time for grid setup =    1.215 sec

--------------
SCF ITERATIONS
--------------
ITER       Energy         Delta-E        Max-DP      RMS-DP      [F,P]     Damp
               ***  Starting incremental Fock matrix formation  ***
  0   -114.8927883278   0.000000000000 0.00014982  0.00001723  0.0008411 0.7000
  1   -114.8927903677  -0.000002039871 0.00013692  0.00001617  0.0006145 0.7000
                               ***Turning on DIIS***
  2   -114.8927919919  -0.000001624220 0.00036852  0.00004733  0.0004521 0.0000
  3   -114.8927967952  -0.000004803252 0.00014163  0.00001188  0.0001115 0.0000
  4   -114.8927969490  -0.000000153785 0.00011640  0.00000611  0.0001006 0.0000
  5   -114.8927969957  -0.000000046697 0.00007924  0.00000547  0.0000771 0.0000
  6   -114.8927970353  -0.000000039632 0.00012624  0.00000654  0.0000354 0.0000
  7   -114.8927970722  -0.000000036925 0.00017514  0.00000898  0.0000363 0.0000
  8   -114.8927971185  -0.000000046257 0.00025080  0.00001272  0.0000350 0.0000
  9   -114.8927971784  -0.000000059930 0.00074432  0.00003790  0.0000320 0.0000
 10   -114.8927973187  -0.000000140320 0.00077748  0.00003936  0.0000223 0.0000
 11   -114.8927974045  -0.000000085773 0.00042256  0.00002167  0.0000110 0.0000
 12   -114.8927974256  -0.000000021090 0.00023448  0.00001185  0.0000048 0.0000
 13   -114.8927974293  -0.000000003682 0.00003228  0.00000166  0.0000022 0.0000
 14   -114.8927974293  -0.000000000079 0.00001429  0.00000072  0.0000005 0.0000
                 **** Energy Check signals convergence ****

 Fermi smearing  (ALPHA): E(HOMO(Eh)) = -0.326115 MUE = -0.107649 gap=   9.402 eV
 Fermi smearing   (BETA): E(HOMO(Eh)) = -0.259016 MUE = -0.194727 gap=   3.499 eV

N_FOD(alpha) =  0.000000
 N_FOD(beta) =  0.000078
       N_FOD =  0.000078

               *****************************************************
               *                     SUCCESS                       *
               *           SCF CONVERGED AFTER  15 CYCLES          *
               *****************************************************

Setting up the final grid:

General Integration Accuracy     IntAcc      ...  4.670
Radial Grid Type                 RadialGrid  ... Gauss-Chebyshev
Angular Grid (max. acc.)         AngularGrid ... Lebedev-302
Angular grid pruning method      GridPruning ... 3 (G Style)
Weight generation scheme         WeightScheme... Becke
Basis function cutoff            BFCut       ...    1.0000e-12
Integration weight cutoff        WCut        ...    1.0000e-14
Grids for H and He will be reduced by one unit

# of grid points (after initial pruning)     ...  22606 (   0.0 sec)
# of grid points (after weights+screening)   ...  22044 (   0.0 sec)
nearest neighbour list constructed           ...    0.0 sec
Grid point re-assignment to atoms done       ...    0.0 sec
Grid point division into batches done        ...    0.1 sec
Reduced shell lists constructed in    0.2 sec

Total number of grid points                  ...    22044
Total number of batches                      ...      348
Average number of points per batch           ...       63
Average number of grid points per atom       ...     4409
Average number of shells per batch           ...    15.07 (83.75%)
Average number of basis functions per batch  ...    28.71 (84.43%)
Average number of large shells per batch     ...    14.00 (92.87%)
Average number of large basis fcns per batch ...    26.40 (91.95%)
Maximum spatial batch extension              ...  17.62, 20.64, 17.57 au
Average spatial batch extension              ...   3.16,  3.19,  3.13 au

Final grid set up in    2.1 sec
Final integration                            ... done (   8.1 sec)
Change in XC energy                          ...    -0.000161915
Integrated number of electrons               ...    16.999993160
Previous integrated no of electrons          ...    16.999406794
[...]
Current Energy                          ....  -114.895547982 Eh
Current gradient norm                   ....     0.003326122 Eh/bohr
Maximum allowed component of the step   ....  0.300
Current trust radius                    ....  0.300
Updating the Hessian (BFGS)             .... done
Forming the augmented Hessian           .... done
Diagonalizing the augmented Hessian     .... done
Last element of RFO vector              ....  0.028394794
Lowest eigenvalues of augmented Hessian:
 -0.101037656  0.000081527  0.116971105  0.138080319  0.184974676
Warning: RFO finds a terribly low value for the scaling factor
Trying a QUASI-NEWTON step instead
Doing a quasi-Newton Step:
Inverting the Hessian                   .... done
Computing the step                      .... done
Length of the computed step             ....  0.000108358
Converting the step to cartesian space:
 Initial RMS(Int)=    0.0000342657
Transforming coordinates:
 Iter   0:  RMS(Cart)=    0.0000247497 RMS(Int)=    0.0000342524
 Iter   1:  RMS(Cart)=    0.0000000008 RMS(Int)=    0.0000000012
done
Storing new coordinates                 .... done

                                .--------------------.
          ----------------------|Geometry convergence|-------------------------
          Item                value                   Tolerance       Converged
          ---------------------------------------------------------------------
          Energy change      -0.0000000028            0.0000050000      YES
          RMS gradient        0.0009076945            0.0001000000      NO
          MAX gradient        0.0018083158            0.0003000000      NO
          RMS step            0.0000342657            0.0020000000      YES
          MAX step            0.0000662288            0.0040000000      YES
          ........................................................
          Max(Bonds)      0.0000      Max(Angles)    0.00
          Max(Dihed)        0.00      Max(Improp)    0.00
          ---------------------------------------------------------------------

The optimization has not yet converged - more geometry cycles are needed


    ---------------------------------------------------------------------------
                         Redundant Internal Coordinates
                            (Angstroem and degrees)

        Definition                    Value    dE/dq     Step     New-Value
    ----------------------------------------------------------------------------
     1. B(O   1,C   0)                1.3549 -0.000048  0.0000    1.3550   
     2. B(H   2,C   0)                1.1141 -0.000189 -0.0000    1.1140   
     3. B(H   3,C   0)                1.1171  0.000008 -0.0000    1.1171   
     4. B(H   4,C   0)                1.1208 -0.000010 -0.0000    1.1208   
     5. A(O   1,C   0,H   3)          112.00 -0.001808   -0.00    112.00   
     6. A(H   2,C   0,H   3)          110.47 -0.000208    0.00    110.47   
     7. A(O   1,C   0,H   4)          106.67  0.001352   -0.00    106.67   
     8. A(H   2,C   0,H   4)          107.77  0.001071    0.00    107.77   
     9. A(H   3,C   0,H   4)          103.88 -0.001158    0.00    103.88   
    10. A(O   1,C   0,H   2)          115.25  0.000755   -0.00    115.25   
    ----------------------------------------------------------------------------

         *************************************************************
         *                GEOMETRY OPTIMIZATION CYCLE  50            *
         *************************************************************
---------------------------------
CARTESIAN COORDINATES (ANGSTROEM)
---------------------------------
  C     -0.333586   -0.007354   -0.011309
  O      0.937163    0.382430   -0.274329
  H     -0.465979   -0.595364    0.925611
  H     -0.794746   -0.542389   -0.876714
  H     -0.943849    0.927983    0.082790

----------------------------
CARTESIAN COORDINATES (A.U.)
----------------------------
  NO LB      ZA    FRAG     MASS         X           Y           Z
   0 C     6.0000    0    12.011   -0.630386   -0.013897   -0.021371
   1 O     8.0000    0    15.999    1.770981    0.722688   -0.518407
   2 H     1.0000    0     1.008   -0.880573   -1.125075    1.749152
   3 H     1.0000    0     1.008   -1.501853   -1.024966   -1.656750
   4 H     1.0000    0     1.008   -1.783617    1.753633    0.156450

--------------------------------
INTERNAL COORDINATES (ANGSTROEM)
--------------------------------
 C      0   0   0     0.000000000000     0.00000000     0.00000000
 O      1   0   0     1.354958574763     0.00000000     0.00000000
 H      1   2   0     1.114048405574   115.24848002     0.00000000
 H      1   2   3     1.117075443413   111.99783720   232.59279341
 H      1   2   3     1.120772519793   106.67149918   119.56660477

---------------------------
INTERNAL COORDINATES (A.U.)
---------------------------
 C      0   0   0     0.000000000000     0.00000000     0.00000000
 O      1   0   0     2.560500629110     0.00000000     0.00000000
 H      1   2   0     2.105246386466   115.24848002     0.00000000
 H      1   2   3     2.110966658979   111.99783720   232.59279341
 H      1   2   3     2.117953120834   106.67149918   119.56660477


Diagonalization of the overlap matrix:
Smallest eigenvalue                        ... 1.265e-02
Time for diagonalization                   ...    0.000 sec
Threshold for overlap eigenvalues          ... 1.000e-08
Number of eigenvalues below threshold      ... 0
Time for construction of square roots      ...    0.339 sec
Total time needed                          ...    0.339 sec

-------------------
DFT GRID GENERATION
-------------------

General Integration Accuracy     IntAcc      ...  4.340
Radial Grid Type                 RadialGrid  ... Gauss-Chebyshev
Angular Grid (max. acc.)         AngularGrid ... Lebedev-110
Angular grid pruning method      GridPruning ... 3 (G Style)
Weight generation scheme         WeightScheme... Becke
Basis function cutoff            BFCut       ...    1.0000e-12
Integration weight cutoff        WCut        ...    1.0000e-14
Grids for H and He will be reduced by one unit

# of grid points (after initial pruning)     ...   5754 (   0.0 sec)
# of grid points (after weights+screening)   ...   5636 (   0.0 sec)
nearest neighbour list constructed           ...    0.0 sec
Grid point re-assignment to atoms done       ...    0.0 sec
Grid point division into batches done        ...    0.0 sec
Reduced shell lists constructed in    0.0 sec

Total number of grid points                  ...     5636
Total number of batches                      ...       90
Average number of points per batch           ...       62
Average number of grid points per atom       ...     1127
Average number of shells per batch           ...    16.12 (89.56%)
Average number of basis functions per batch  ...    30.71 (90.34%)
Average number of large shells per batch     ...    15.26 (94.68%)
Average number of large basis fcns per batch ...    28.89 (94.06%)
Maximum spatial batch extension              ...  25.68, 25.60, 22.94 au
Average spatial batch extension              ...   5.09,  4.95,  4.54 au

Time for grid setup =    0.095 sec

--------------
SCF ITERATIONS
--------------
ITER       Energy         Delta-E        Max-DP      RMS-DP      [F,P]     Damp
               ***  Starting incremental Fock matrix formation  ***
  0   -114.8929342104   0.000000000000 0.00000095  0.00000014  0.0000082 0.7000
  1   -114.8929342105  -0.000000000137 0.00000105  0.00000014  0.0000059 0.7000
                               ***Turning on DIIS***
                 **** Energy Check signals convergence ****

 Fermi smearing  (ALPHA): E(HOMO(Eh)) = -0.325650 MUE =  0.017167 gap=  16.208 eV
 Fermi smearing   (BETA): E(HOMO(Eh)) = -0.259394 MUE = -0.069720 gap=  10.323 eV

N_FOD(alpha) =  0.000000
 N_FOD(beta) =  0.000000
       N_FOD =  0.000000

               *****************************************************
               *                     SUCCESS                       *
               *           SCF CONVERGED AFTER   2 CYCLES          *
               *****************************************************

Setting up the final grid:

General Integration Accuracy     IntAcc      ...  4.670
Radial Grid Type                 RadialGrid  ... Gauss-Chebyshev
Angular Grid (max. acc.)         AngularGrid ... Lebedev-302
Angular grid pruning method      GridPruning ... 3 (G Style)
Weight generation scheme         WeightScheme... Becke
Basis function cutoff            BFCut       ...    1.0000e-12
Integration weight cutoff        WCut        ...    1.0000e-14
Grids for H and He will be reduced by one unit

# of grid points (after initial pruning)     ...  22606 (   0.0 sec)
# of grid points (after weights+screening)   ...  22047 (   0.0 sec)
nearest neighbour list constructed           ...    0.0 sec
Grid point re-assignment to atoms done       ...    0.0 sec
Grid point division into batches done        ...    0.1 sec
Reduced shell lists constructed in    0.1 sec

Total number of grid points                  ...    22047
Total number of batches                      ...      348
Average number of points per batch           ...       63
Average number of grid points per atom       ...     4409
Average number of shells per batch           ...    15.06 (83.67%)
Average number of basis functions per batch  ...    28.65 (84.26%)
Average number of large shells per batch     ...    14.00 (92.94%)
Average number of large basis fcns per batch ...    26.43 (92.27%)
Maximum spatial batch extension              ...  17.63, 20.64, 18.26 au
Average spatial batch extension              ...   3.17,  3.22,  3.12 au

Final grid set up in    0.2 sec
Final integration                            ... done (   0.7 sec)
Change in XC energy                          ...    -0.000187403
Integrated number of electrons               ...    16.999990276
Previous integrated no of electrons          ...    16.999222332
Total Energy       :         -114.89312161 Eh           -3126.40078 eV
  Last Energy change         ...   -1.0922e-10  Tolerance :   1.0000e-09
  Last MAX-Density change    ...    1.0561e-05  Tolerance :   1.0000e-08
             **** THE GBW FILE WAS UPDATED (orca2.gbw) ****
             **** DENSITY FILE WAS UPDATED (orca2.scfp) ****
             **** ENERGY FILE WAS UPDATED (orca2.en.tmp) ****
             **** THE GBW FILE WAS UPDATED (orca2.gbw) ****
             **** DENSITY FILE WAS UPDATED (orca2.scfp) ****
Total SCF time: 0 days 0 hours 0 min 7 sec 


-------------------------------------------------------------------------------
                          DFT DISPERSION CORRECTION                            
                                                                               
                              DFTD3 V3.1  Rev 1                                
                          USING Becke-Johnson damping                          
-------------------------------------------------------------------------------
-------------------------   ----------------
Dispersion correction           -0.002425968
-------------------------   ----------------


-------------------------   --------------------
FINAL SINGLE POINT ENERGY      -114.895547581843
-------------------------   --------------------

------------------------------------------------------------------------------
                         ORCA SCF GRADIENT CALCULATION
------------------------------------------------------------------------------

Gradient of the Kohn-Sham DFT energy:
Kohn-Sham wavefunction type      ... UKS
Hartree-Fock exchange scaling    ...    0.200
Number of operators              ...    2
Number of atoms                  ...    5
Basis set dimensions             ...   34
Integral neglect threshold       ... 1.0e-12
Integral primitive cutoff        ... 1.0e-14

Nuclear repulsion gradient       ... done
One Electron Gradient            ... done
Pre-screening matrix             ... done
Starting the two electron gradient:
Two electron gradient done
Exchange-correlation gradient    ... done
Dispersion correction            ... done

------------------
CARTESIAN GRADIENT
------------------

   1   C   :    0.000421135    0.000969845    0.002584514
   2   O   :   -0.000030377   -0.000667677   -0.000910634
   3   H   :   -0.000055634   -0.000346570   -0.000451234
   4   H   :    0.000334598    0.000417176   -0.000443690
   5   H   :   -0.000669722   -0.000372775   -0.000778957

Difference to translation invariance:
           :    0.0000000000    0.0000000000    0.0000000000

Norm of the cartesian gradient     ...    0.0033282983
RMS gradient                       ...    0.0008593629
MAX gradient                       ...    0.0025845143

-------
TIMINGS
-------

Total SCF gradient time            ...        0.736 sec

One electron gradient       ....       0.006 sec  (  0.8%)
Prescreening matrices       ....       0.016 sec  (  2.1%)
Two electron gradient       ....       0.131 sec  ( 17.8%)
XC gradient                 ....       0.394 sec  ( 53.6%)
------------------------------------------------------------------------------
                         ORCA GEOMETRY RELAXATION STEP
------------------------------------------------------------------------------

Reading the OPT-File                    .... done
Getting information on internals        .... done
Copying old internal coords+grads       .... done
Making the new internal coordinates     .... (new redundants).... done
Validating the new internal coordinates .... (new redundants).... done
Calculating the B-matrix                .... done
Calculating the G,G- and P matrices     .... done
Transforming gradient to internals      .... done
Projecting the internal gradient        .... done
Number of atoms                         ....   5
Number of internal coordinates          ....  10
Current Energy                          ....  -114.895547582 Eh
Current gradient norm                   ....     0.003328298 Eh/bohr
Maximum allowed component of the step   ....  0.300
Current trust radius                    ....  0.300
Resetting Hessian after 50 BFGS Update Steps....
Build internal Hessian                  .... (Almloef) done
Updating Hessian with the last 5 steps  .... done
Forming the augmented Hessian           .... done
Diagonalizing the augmented Hessian     .... done
Last element of RFO vector              ....  0.999957544
Lowest eigenvalues of augmented Hessian:
 -0.000025886  0.127021424  0.281465773  0.287521196  0.321556339
Length of the computed step             ....  0.009215060
The final length of the internal step   ....  0.009215060
Converting the step to cartesian space:
 Initial RMS(Int)=    0.0029140578
Transforming coordinates:
 Iter   0:  RMS(Cart)=    0.0026591586 RMS(Int)=    0.0029189759
 Iter   1:  RMS(Cart)=    0.0000072069 RMS(Int)=    0.0000099710
 Iter   2:  RMS(Cart)=    0.0000000251 RMS(Int)=    0.0000000308
done
Storing new coordinates                 .... done

                                .--------------------.
          ----------------------|Geometry convergence|-------------------------
          Item                value                   Tolerance       Converged
          ---------------------------------------------------------------------
          Energy change       0.0000003997            0.0000050000      YES
          RMS gradient        0.0009086099            0.0001000000      NO
          MAX gradient        0.0018169966            0.0003000000      NO
          RMS step            0.0029140578            0.0020000000      NO
          MAX step            0.0050555211            0.0040000000      NO
          ........................................................
          Max(Bonds)      0.0003      Max(Angles)    0.29
          Max(Dihed)        0.00      Max(Improp)    0.00
          ---------------------------------------------------------------------

The optimization has not yet converged - more geometry cycles are needed


    ---------------------------------------------------------------------------
                         Redundant Internal Coordinates
                            (Angstroem and degrees)

        Definition                    Value    dE/dq     Step     New-Value
    ----------------------------------------------------------------------------
     1. B(O   1,C   0)                1.3550 -0.000044  0.0003    1.3552   
     2. B(H   2,C   0)                1.1140 -0.000190  0.0003    1.1143   
     3. B(H   3,C   0)                1.1171  0.000006 -0.0001    1.1170   
     4. B(H   4,C   0)                1.1208 -0.000012 -0.0001    1.1207   
     5. A(O   1,C   0,H   3)          112.00 -0.001817    0.26    112.26   
     6. A(H   2,C   0,H   3)          110.47 -0.000208    0.05    110.52   
     7. A(O   1,C   0,H   4)          106.67  0.001352   -0.25    106.42   
     8. A(H   2,C   0,H   4)          107.77  0.001077   -0.19    107.58   
     9. A(H   3,C   0,H   4)          103.88 -0.001150    0.29    104.17   
    10. A(O   1,C   0,H   2)          115.25  0.000750   -0.15    115.10   
    ----------------------------------------------------------------------------




    ----------------------------------------------------------------------------
                                  WARNING !!!
       The optimization did not converge but reached the maximum number of
       optimization cycles.
       Please check your results very carefully.
    ----------------------------------------------------------------------------



                            ***************************************
                            *     ORCA property calculations      *
                            ***************************************

                                    ---------------------
                                    Active property flags
                                    ---------------------
   (+) Dipole Moment


------------------------------------------------------------------------------
                       ORCA ELECTRIC PROPERTIES CALCULATION
------------------------------------------------------------------------------

Dipole Moment Calculation                       ... on
Quadrupole Moment Calculation                   ... off
Polarizability Calculation                      ... off
GBWName                                         ... orca2.gbw
Electron density file                           ... orca2.scfp
The origin for moment calculation is the CENTER OF MASS  = ( 0.532818,  0.355141 -0.267321)

-------------
DIPOLE MOMENT
-------------
                                X             Y             Z
Electronic contribution:      2.09229       0.59670      -0.40769
Nuclear contribution   :     -2.85108      -0.72343       0.52015
                        -----------------------------------------
Total Dipole Moment    :     -0.75880      -0.12673       0.11246
                        -----------------------------------------
Magnitude (a.u.)       :      0.77748
Magnitude (Debye)      :      1.97621



--------------------
Rotational spectrum 
--------------------
 
Rotational constants in cm-1:     5.159767     0.938433     0.930901 
Rotational constants in MHz : 154685.915316 28133.524271 27907.711746 

 Dipole components along the rotational axes: 
x,y,z [a.u.] :    -0.770262    -0.066602     0.082104 
x,y,z [Debye]:    -1.957851    -0.169288     0.208691 

 

Timings for individual modules:

Sum of individual times         ...     8491.038 sec (= 141.517 min)
GTO integral calculation        ...      185.182 sec (=   3.086 min)   2.2 %
SCF iterations                  ...     8072.715 sec (= 134.545 min)  95.1 %
SCF Gradient evaluation         ...      100.450 sec (=   1.674 min)   1.2 %
Geometry relaxation             ...      132.692 sec (=   2.212 min)   1.6 %
                             ****ORCA TERMINATED NORMALLY****
TOTAL RUN TIME: 0 days 2 hours 26 minutes 43 seconds 655 msec
