
                                 *****************
                                 * O   R   C   A *
                                 *****************

           --- An Ab Initio, DFT and Semiempirical electronic structure package ---

                  #######################################################
                  #                        -***-                        #
                  #          Department of theory and spectroscopy      #
                  #               Directorship: Frank Neese             #
                  #        Max Planck Institute fuer Kohlenforschung    #
                  #                Kaiser Wilhelm Platz 1               #
                  #                 D-45470 Muelheim/Ruhr               #
                  #                      Germany                        #
                  #                                                     #
                  #                  All rights reserved                #
                  #                        -***-                        #
                  #######################################################


                         Program Version 4.2.1 -  RELEASE  -


 With contributions from (in alphabetic order):
   Daniel Aravena         : Magnetic Suceptibility
   Michael Atanasov       : Ab Initio Ligand Field Theory (pilot matlab implementation)
   Alexander A. Auer      : GIAO ZORA, VPT2
   Ute Becker             : Parallelization
   Giovanni Bistoni       : ED, misc. LED, open-shell LED, HFLD
   Martin Brehm           : Molecular dynamics
   Dmytro Bykov           : SCF Hessian
   Vijay G. Chilkuri      : MRCI spin determinant printing, contributions to CSF-ICE
   Dipayan Datta          : RHF DLPNO-CCSD density
   Achintya Kumar Dutta   : EOM-CC, STEOM-CC
   Dmitry Ganyushin       : Spin-Orbit,Spin-Spin,Magnetic field MRCI
   Miquel Garcia          : C-PCM Hessian, Gaussian charge scheme
   Yang Guo               : DLPNO-NEVPT2, CIM, IAO-localization
   Andreas Hansen         : Spin unrestricted coupled pair/coupled cluster methods
   Benjamin Helmich-Paris : CASSCF linear response (MC-RPA)
   Lee Huntington         : MR-EOM, pCC
   Robert Izsak           : Overlap fitted RIJCOSX, COSX-SCS-MP3, EOM
   Christian Kollmar      : KDIIS, OOCD, Brueckner-CCSD(T), CCSD density
   Simone Kossmann        : Meta GGA functionals, TD-DFT gradient, OOMP2, MP2 Hessian
   Martin Krupicka        : AUTO-CI
   Lucas Lang             : DCDCAS
   Dagmar Lenk            : GEPOL surface, SMD
   Dimitrios Liakos       : Extrapolation schemes; Compound Job, initial MDCI parallelization
   Dimitrios Manganas     : Further ROCIS development; embedding schemes
   Dimitrios Pantazis     : SARC Basis sets
   Taras Petrenko         : DFT Hessian,TD-DFT gradient, ASA, ECA, R-Raman, ABS, FL, XAS/XES, NRVS
   Peter Pinski           : DLPNO-MP2, DLPNO-MP2 Gradient
   Christoph Reimann      : Effective Core Potentials
   Marius Retegan         : Local ZFS, SOC
   Christoph Riplinger    : Optimizer, TS searches, QM/MM, DLPNO-CCSD(T), (RO)-DLPNO pert. Triples
   Tobias Risthaus        : Range-separated hybrids, TD-DFT gradient, RPA, STAB
   Michael Roemelt        : Original ROCIS implementation
   Masaaki Saitow         : Open-shell DLPNO-CCSD energy and density
   Barbara Sandhoefer     : DKH picture change effects
   Avijit Sen             : IP-ROCIS
   Kantharuban Sivalingam : CASSCF convergence, NEVPT2, FIC-MRCI
   Bernardo de Souza      : ESD, SOC TD-DFT
   Georgi Stoychev        : AutoAux, RI-MP2 NMR
   Willem Van den Heuvel  : Paramagnetic NMR
   Boris Wezisla          : Elementary symmetry handling
   Frank Wennmohs         : Technical directorship


 We gratefully acknowledge several colleagues who have allowed us to
 interface, adapt or use parts of their codes:
   Stefan Grimme, W. Hujo, H. Kruse,             : VdW corrections, initial TS optimization,
                  C. Bannwarth                     DFT functionals, gCP, sTDA/sTD-DF
   Ed Valeev, F. Pavosevic, A. Kumar             : LibInt (2-el integral package), F12 methods
   Garnet Chan, S. Sharma, J. Yang, R. Olivares  : DMRG
   Ulf Ekstrom                                   : XCFun DFT Library
   Mihaly Kallay                                 : mrcc  (arbitrary order and MRCC methods)
   Andreas Klamt, Michael Diedenhofen            : otool_cosmo (COSMO solvation model)
   Jiri Pittner, Ondrej Demel                    : Mk-CCSD
   Frank Weinhold                                : gennbo (NPA and NBO analysis)
   Christopher J. Cramer and Donald G. Truhlar   : smd solvation model
   Lars Goerigk                                  : TD-DFT with DH, B97 family of functionals
   V. Asgeirsson, H. Jonsson                     : NEB implementation
   FAccTs GmbH                                   : IRC, NEB, NEB-TS, Multilevel, MM, QM/MM, CI optimization
   S Lehtola, MJT Oliveira, MAL Marques          : LibXC Library


 Your calculation uses the libint2 library for the computation of 2-el integrals
 For citations please refer to: http://libint.valeyev.net

 Your ORCA version has been built with support for libXC version: 4.2.3
 For citations please refer to: https://tddft.org/programs/libxc/

 This ORCA versions uses:
   CBLAS   interface :  Fast vector & matrix operations
   LAPACKE interface :  Fast linear algebra routines
   SCALAPACK package :  Parallel linear algebra routines


Your calculation utilizes the atom-pairwise dispersion correction
with the Becke-Johnson damping scheme (D3BJ)
Cite in your paper:
S.Grimme, S.Ehrlich, L.Goerigk, J Comput Chem, (2011), 32, 1456–1465 
S.Grimme, J.Antony, S.Ehrlich and H.Krieg, J.Chem.Phys., 132, (2010), 154104 
   

----- Orbital basis set information -----
Your calculation utilizes the basis: def2-SV(P)
   F. Weigend and R. Ahlrichs, Phys. Chem. Chem. Phys. 7, 3297 (2005).

----- AuxJ basis set information -----
Your calculation utilizes the auxiliary basis: def2/J
   F. Weigend, Phys. Chem. Chem. Phys. 8, 1057 (2006).

================================================================================
                                        WARNINGS
                       Please study these warnings very carefully!
================================================================================


WARNING: Geometry Optimization
  ===> : Switching off AutoStart
         For restart on a previous wavefunction, please use MOREAD

INFO   : the flag for use of LIBINT has been found!

================================================================================
                                       INPUT FILE
================================================================================
NAME = orca3.inp
|  1> ! UKS B3LYP def2-SV(P) def2/J D3BJ Opt
|  2> %scf Convergence VeryTight
|  3> SmearTemp 2000
|  4> maxiter 500
|  5> end
|  6> *xyz 0 2
|  7> C -0.382433 0.000434 0.010887
|  8> O 0.921432 -0.492685 -0.13979
|  9> H -0.595393 -0.035793 1.098334
| 10> H -0.512263 1.008594 -0.406201
| 11> H -1.012397 -0.714507 -0.573017
| 12> *
| 13> 
| 14>                          ****END OF INPUT****
================================================================================

                       *****************************
                       * Geometry Optimization Run *
                       *****************************

Geometry optimization settings:
Update method            Update   .... BFGS
Choice of coordinates    CoordSys .... Z-matrix Internals
Initial Hessian          InHess   .... Almoef's Model

Convergence Tolerances:
Energy Change            TolE     ....  5.0000e-06 Eh
Max. Gradient            TolMAXG  ....  3.0000e-04 Eh/bohr
RMS Gradient             TolRMSG  ....  1.0000e-04 Eh/bohr
Max. Displacement        TolMAXD  ....  4.0000e-03 bohr
RMS Displacement         TolRMSD  ....  2.0000e-03 bohr
Strict Convergence                ....  False
------------------------------------------------------------------------------
                        ORCA OPTIMIZATION COORDINATE SETUP
------------------------------------------------------------------------------

The optimization will be done in new redundant internal coordinates
Making redundant internal coordinates   ...  (new redundants) done
Evaluating the initial hessian          ...  (Almloef) done
Evaluating the coordinates              ...  done
Calculating the B-matrix                .... done
Calculating the G-matrix                .... done
Diagonalizing the G-matrix              .... done
The first mode is                       ....    1
The number of degrees of freedom        ....    9

    -----------------------------------------------------------------
                    Redundant Internal Coordinates


    -----------------------------------------------------------------
         Definition                    Initial Value    Approx d2E/dq
    -----------------------------------------------------------------
      1. B(O   1,C   0)                  1.4021         0.535233   
      2. B(H   2,C   0)                  1.1087         0.336199   
      3. B(H   3,C   0)                  1.0987         0.348736   
      4. B(H   4,C   0)                  1.1176         0.325427   
      5. A(O   1,C   0,H   3)          113.0662         0.340340   
      6. A(H   2,C   0,H   3)          112.3101         0.286289   
      7. A(O   1,C   0,H   4)          104.0670         0.336436   
      8. A(H   2,C   0,H   4)          112.5375         0.283224   
      9. A(H   3,C   0,H   4)          108.7871         0.284840   
     10. A(O   1,C   0,H   2)          105.8151         0.338266   
    -----------------------------------------------------------------

Number of atoms                         .... 5
Number of degrees of freedom            .... 10

Time needed for optimization step       :     3.22 sec

         *************************************************************
         *                GEOMETRY OPTIMIZATION CYCLE   1            *
         *************************************************************
---------------------------------
CARTESIAN COORDINATES (ANGSTROEM)
---------------------------------
  C     -0.382433    0.000434    0.010887
  O      0.921432   -0.492685   -0.139790
  H     -0.595393   -0.035793    1.098334
  H     -0.512263    1.008594   -0.406201
  H     -1.012397   -0.714507   -0.573017

----------------------------
CARTESIAN COORDINATES (A.U.)
----------------------------
  NO LB      ZA    FRAG     MASS         X           Y           Z
   0 C     6.0000    0    12.011   -0.722694    0.000820    0.020573
   1 O     8.0000    0    15.999    1.741254   -0.931040   -0.264165
   2 H     1.0000    0     1.008   -1.125130   -0.067639    2.075550
   3 H     1.0000    0     1.008   -0.968037    1.905966   -0.767609
   4 H     1.0000    0     1.008   -1.913153   -1.350223   -1.082845

--------------------------------
INTERNAL COORDINATES (ANGSTROEM)
--------------------------------
 C      0   0   0     0.000000000000     0.00000000     0.00000000
 O      1   0   0     1.402117628701     0.00000000     0.00000000
 H      1   2   0     1.108695330079   105.81511888     0.00000000
 H      1   2   3     1.098728726412   113.06621538   123.33003485
 H      1   2   3     1.117559464187   104.06696184   241.20615907

---------------------------
INTERNAL COORDINATES (A.U.)
---------------------------
 C      0   0   0     0.000000000000     0.00000000     0.00000000
 O      1   0   0     2.649618325789     0.00000000     0.00000000
 H      1   2   0     2.095130539806   105.81511888     0.00000000
 H      1   2   3     2.076296388392   113.06621538   123.33003485
 H      1   2   3     2.111881325684   104.06696184   241.20615907

---------------------
BASIS SET INFORMATION
---------------------
There are 3 groups of distinct atoms

 Group   1 Type C   : 7s4p1d contracted to 3s2p1d pattern {511/31/1}
 Group   2 Type O   : 7s4p1d contracted to 3s2p1d pattern {511/31/1}
 Group   3 Type H   : 4s contracted to 2s pattern {31}

Atom   0C    basis set group =>   1
Atom   1O    basis set group =>   2
Atom   2H    basis set group =>   3
Atom   3H    basis set group =>   3
Atom   4H    basis set group =>   3
---------------------------------
AUXILIARY/J BASIS SET INFORMATION
---------------------------------
There are 3 groups of distinct atoms

 Group   1 Type C   : 12s5p4d2f1g contracted to 6s4p3d1f1g pattern {711111/2111/211/2/1}
 Group   2 Type O   : 12s5p4d2f1g contracted to 6s4p3d1f1g pattern {711111/2111/211/2/1}
 Group   3 Type H   : 5s2p1d contracted to 3s1p1d pattern {311/2/1}

Atom   0C    basis set group =>   1
Atom   1O    basis set group =>   2
Atom   2H    basis set group =>   3
Atom   3H    basis set group =>   3
Atom   4H    basis set group =>   3
------------------------------------------------------------------------------
                           ORCA GTO INTEGRAL CALCULATION
------------------------------------------------------------------------------

                         BASIS SET STATISTICS AND STARTUP INFO

 # of primitive gaussian shells          ...   36
 # of primitive gaussian functions       ...   60
 # of contracted shells                  ...   18
 # of contracted basis functions         ...   34
 Highest angular momentum                ...    2
 Maximum contraction depth               ...    5
 Integral package used                   ... LIBINT
 Integral threshhold            Thresh   ...  1.000e-12
 Primitive cut-off              TCut     ...  1.000e-14


------------------------------ INTEGRAL EVALUATION ----------------------------


 * One electron integrals 
 Pre-screening matrix                    ... done
 Shell pair data                         ... done (   0.000 sec)

-------------------------------------------------------------------------------
                                 ORCA SCF
-------------------------------------------------------------------------------

------------
SCF SETTINGS
------------
Hamiltonian:
 Density Functional     Method          .... DFT(GTOs)
 Exchange Functional    Exchange        .... B88
   X-Alpha parameter    XAlpha          ....  0.666667
   Becke's b parameter  XBeta           ....  0.004200
 Correlation Functional Correlation     .... LYP
 LDA part of GGA corr.  LDAOpt          .... VWN-5
 Gradients option       PostSCFGGA      .... off
 Hybrid DFT is turned on
   Fraction HF Exchange ScalHFX         ....  0.200000
   Scaling of DF-GGA-X  ScalDFX         ....  0.720000
   Scaling of DF-GGA-C  ScalDFC         ....  0.810000
   Scaling of DF-LDA-C  ScalLDAC        ....  1.000000
   Perturbative correction              ....  0.000000
   Density functional embedding theory  .... OFF
   NL short-range parameter             ....  4.800000


General Settings:
 Integral files         IntName         .... orca3
 Hartree-Fock type      HFTyp           .... UHF
 Total Charge           Charge          ....    0
 Multiplicity           Mult            ....    2
 Number of Electrons    NEL             ....   17
 Basis Dimension        Dim             ....   34
 Nuclear Repulsion      ENuc            ....     33.8297787112 Eh

Convergence Acceleration:
 DIIS                   CNVDIIS         .... on
   Start iteration      DIISMaxIt       ....    12
   Startup error        DIISStart       ....  0.200000
   # of expansion vecs  DIISMaxEq       ....     5
   Bias factor          DIISBfac        ....   1.050
   Max. coefficient     DIISMaxC        ....  10.000
 Newton-Raphson         CNVNR           .... off
 SOSCF                  CNVSOSCF        .... off
 Level Shifting         CNVShift        .... on
   Level shift para.    LevelShift      ....    0.2500
   Turn off err/grad.   ShiftErr        ....    0.0010
 Zerner damping         CNVZerner       .... off
 Static damping         CNVDamp         .... on
   Fraction old density DampFac         ....    0.7000
   Max. Damping (<1)    DampMax         ....    0.9800
   Min. Damping (>=0)   DampMin         ....    0.0000
   Turn off err/grad.   DampErr         ....    0.1000
 Fernandez-Rico         CNVRico         .... off

SCF Procedure:
 Maximum # iterations   MaxIter         ....   500
 SCF integral mode      SCFMode         .... Direct
   Integral package                     .... LIBINT
 Reset frequency        DirectResetFreq ....    20
 Integral Threshold     Thresh          ....  1.000e-12 Eh
 Primitive CutOff       TCut            ....  1.000e-14 Eh

Convergence Tolerance:
 Convergence Check Mode ConvCheckMode   .... Total+1el-Energy
 Convergence forced     ConvForced      .... 0
 Energy Change          TolE            ....  1.000e-09 Eh
 1-El. energy change                    ....  1.000e-06 Eh
 DIIS Error             TolErr          ....  1.000e-08


Diagonalization of the overlap matrix:
Smallest eigenvalue                        ... 1.222e-02
Time for diagonalization                   ...    0.668 sec
Threshold for overlap eigenvalues          ... 1.000e-08
Number of eigenvalues below threshold      ... 0
Time for construction of square roots      ...    6.482 sec
Total time needed                          ...    7.150 sec

-------------------
DFT GRID GENERATION
-------------------

General Integration Accuracy     IntAcc      ...  4.340
Radial Grid Type                 RadialGrid  ... Gauss-Chebyshev
Angular Grid (max. acc.)         AngularGrid ... Lebedev-110
Angular grid pruning method      GridPruning ... 3 (G Style)
Weight generation scheme         WeightScheme... Becke
Basis function cutoff            BFCut       ...    1.0000e-12
Integration weight cutoff        WCut        ...    1.0000e-14
Grids for H and He will be reduced by one unit

# of grid points (after initial pruning)     ...   5754 (   0.0 sec)
# of grid points (after weights+screening)   ...   5639 (   0.0 sec)
nearest neighbour list constructed           ...    0.0 sec
Grid point re-assignment to atoms done       ...    0.0 sec
Grid point division into batches done        ...    0.0 sec
Reduced shell lists constructed in    0.0 sec

Total number of grid points                  ...     5639
Total number of batches                      ...       91
Average number of points per batch           ...       61
Average number of grid points per atom       ...     1128
Average number of shells per batch           ...    16.15 (89.73%)
Average number of basis functions per batch  ...    30.78 (90.54%)
Average number of large shells per batch     ...    15.10 (93.47%)
Average number of large basis fcns per batch ...    28.47 (92.48%)
Maximum spatial batch extension              ...  25.60, 22.34, 19.80 au
Average spatial batch extension              ...   4.94,  4.70,  4.59 au

Time for grid setup =    1.757 sec

------------------------------
INITIAL GUESS: MODEL POTENTIAL
------------------------------
Loading Hartree-Fock densities                     ... done
Calculating cut-offs                               ... done
Setting up the integral package                    ... done
Initializing the effective Hamiltonian             ... done
Starting the Coulomb interaction                   ... done (   0.0 sec)
Reading the grid                                   ... done
Mapping shells                                     ... done
Starting the XC term evaluation                    ... done (   0.0 sec)
  promolecular density results
     # of electrons  =     16.998835747
     EX              =    -14.146998880
     EC              =     -0.559064723
     EX+EC           =    -14.706063603
Transforming the Hamiltonian                       ... done (   0.0 sec)
Diagonalizing the Hamiltonian                      ... done (   0.0 sec)
Back transforming the eigenvectors                 ... done (   0.0 sec)
Now organizing SCF variables                       ... done
                      ------------------
                      INITIAL GUESS DONE (   1.9 sec)
                      ------------------
--------------
SCF ITERATIONS
--------------
ITER       Energy         Delta-E        Max-DP      RMS-DP      [F,P]     Damp
               ***  Starting incremental Fock matrix formation  ***
  0   -114.8447700323   0.000000000000 0.02544173  0.00214588  0.1184126 0.7000
  1   -114.8636688436  -0.018898811289 0.01534058  0.00150917  0.0565155 0.7000
                               ***Turning on DIIS***
  2   -114.8724629574  -0.008794113808 0.02750667  0.00268559  0.0277048 0.0000
  3   -114.8870597001  -0.014596742683 0.01389358  0.00122566  0.0332835 0.0000
  4   -114.8899922611  -0.002932560980 0.00385808  0.00034419  0.0043975 0.0000
  5   -114.8901430032  -0.000150742087 0.00196998  0.00018165  0.0040426 0.0000
  6   -114.8901919848  -0.000048981605 0.00249205  0.00014678  0.0009216 0.0000
  7   -114.8902114093  -0.000019424519 0.00162514  0.00006985  0.0004378 0.0000
  8   -114.8902159001  -0.000004490774 0.00127825  0.00005584  0.0004378 0.0000
  9   -114.8902192952  -0.000003395120 0.00249101  0.00010810  0.0004317 0.0000
 10   -114.8902256592  -0.000006363998 0.00620202  0.00026906  0.0004169 0.0000
 11   -114.8902403203  -0.000014661070 0.01852424  0.00080785  0.0003748 0.0000
 12   -114.8902739097  -0.000033589425 0.00156278  0.00006666  0.0002384 0.0000
 13   -114.8902760654  -0.000002155686 0.01781906  0.00078299  0.0002223 0.0000
 14   -114.8902914827  -0.000015417342 0.00201308  0.00009074  0.0002038 0.0000
 15   -114.8902907095   0.000000773226 0.00745102  0.00032790  0.0000869 0.0000
 16   -114.8902931589  -0.000002449351 0.00183312  0.00008064  0.0000661 0.0000
 17   -114.8902933266  -0.000000167759 0.00051427  0.00002242  0.0000295 0.0000
 18   -114.8902933405  -0.000000013853 0.00014574  0.00000633  0.0000066 0.0000
 19   -114.8902933406  -0.000000000106 0.00013038  0.00000580  0.0000018 0.0000
               *** Restarting incremental Fock matrix formation ***
                                   *** Resetting DIIS ***
 20   -114.8902933409  -0.000000000282 0.00000153  0.00000009  0.0000008 0.0000
 21   -114.8902933409  -0.000000000012 0.00000071  0.00000005  0.0000005 0.0000
 22   -114.8902933409  -0.000000000002 0.00000144  0.00000006  0.0000004 0.0000
                 **** Energy Check signals convergence ****

 Fermi smearing  (ALPHA): E(HOMO(Eh)) = -0.331704 MUE = -0.106983 gap=   9.392 eV
 Fermi smearing   (BETA): E(HOMO(Eh)) = -0.257306 MUE = -0.190872 gap=   3.616 eV

N_FOD(alpha) =  0.000000
 N_FOD(beta) =  0.000056
       N_FOD =  0.000056

               *****************************************************
               *                     SUCCESS                       *
               *           SCF CONVERGED AFTER  23 CYCLES          *
               *****************************************************

Setting up the final grid:

General Integration Accuracy     IntAcc      ...  4.670
Radial Grid Type                 RadialGrid  ... Gauss-Chebyshev
Angular Grid (max. acc.)         AngularGrid ... Lebedev-302
Angular grid pruning method      GridPruning ... 3 (G Style)
Weight generation scheme         WeightScheme... Becke
Basis function cutoff            BFCut       ...    1.0000e-12
Integration weight cutoff        WCut        ...    1.0000e-14
Grids for H and He will be reduced by one unit

# of grid points (after initial pruning)     ...  22606 (   0.0 sec)
# of grid points (after weights+screening)   ...  22055 (   0.0 sec)
nearest neighbour list constructed           ...    0.0 sec
Grid point re-assignment to atoms done       ...    0.0 sec
Grid point division into batches done        ...    0.1 sec
Reduced shell lists constructed in    0.2 sec

Total number of grid points                  ...    22055
Total number of batches                      ...      347
Average number of points per batch           ...       63
Average number of grid points per atom       ...     4411
Average number of shells per batch           ...    15.01 (83.37%)
Average number of basis functions per batch  ...    28.55 (83.96%)
Average number of large shells per batch     ...    13.94 (92.90%)
Average number of large basis fcns per batch ...    26.35 (92.30%)
Maximum spatial batch extension              ...  20.64, 20.64, 20.64 au
Average spatial batch extension              ...   3.18,  3.09,  3.19 au

Final grid set up in    3.2 sec
Final integration                            ... done (  21.6 sec)
Change in XC energy                          ...     0.000175996
Integrated number of electrons               ...    16.999962812
Previous integrated no of electrons          ...    17.002050857

----------------
TOTAL SCF ENERGY
----------------

Total Energy       :         -114.89011734 Eh           -3126.31903 eV

Components:
Nuclear Repulsion  :           33.82977871 Eh             920.55508 eV
Electronic Energy  :         -148.71989606 Eh           -4046.87411 eV
One Electron Energy:         -223.21398124 Eh           -6073.96122 eV
Two Electron Energy:           74.49408518 Eh            2027.08711 eV

Virial components:
Potential Energy   :         -228.95648284 Eh           -6230.22264 eV
Kinetic Energy     :          114.06636550 Eh            3103.90360 eV
Virial Ratio       :            2.00722169


DFT components:
N(Alpha)           :        8.999981425446 electrons
N(Beta)            :        7.999981386205 electrons
N(Total)           :       16.999962811651 electrons
E(X)               :      -11.450658959553 Eh       
E(C)               :       -0.660792899766 Eh       
E(XC)              :      -12.111451859319 Eh       
DFET-embed. en.    :        0.000000000000 Eh       

---------------
SCF CONVERGENCE
---------------

  Last Energy change         ...   -3.8938e-12  Tolerance :   1.0000e-09
  Last MAX-Density change    ...    1.0308e-06  Tolerance :   1.0000e-08
  Last RMS-Density change    ...    4.5336e-08  Tolerance :   1.0000e-09
  Last DIIS Error            ...    2.7701e-07  Tolerance :   1.0000e-08

             **** THE GBW FILE WAS UPDATED (orca3.gbw) ****
             **** DENSITY FILE WAS UPDATED (orca3.scfp) ****
             **** ENERGY FILE WAS UPDATED (orca3.en.tmp) ****
             **** THE GBW FILE WAS UPDATED (orca3.gbw) ****
             **** DENSITY FILE WAS UPDATED (orca3.scfp) ****
----------------
ORBITAL ENERGIES
----------------
                 SPIN UP ORBITALS
  NO   OCC          E(Eh)            E(eV) 
   0   1.0000     -19.166633      -521.5506 
   1   1.0000     -10.233545      -278.4689 
   2   1.0000      -0.994893       -27.0724 
   3   1.0000      -0.659711       -17.9517 
   4   1.0000      -0.483250       -13.1499 
   5   1.0000      -0.456549       -12.4233 
   6   1.0000      -0.418425       -11.3859 
   7   1.0000      -0.331704        -9.0261 
   8   1.0000      -0.279552        -7.6070 
   9   0.0000       0.065587         1.7847 
  10   0.0000       0.119067         3.2400 
  11   0.0000       0.125690         3.4202 
  12   0.0000       0.150111         4.0847 
  13   0.0000       0.443344        12.0640 
  14   0.0000       0.464397        12.6369 
  15   0.0000       0.480954        13.0874 
  16   0.0000       0.635459        17.2917 
  17   0.0000       0.646115        17.5817 
  18   0.0000       0.658444        17.9172 
  19   0.0000       0.671374        18.2690 
  20   0.0000       0.928273        25.2596 
  21   0.0000       0.943358        25.6701 
  22   0.0000       1.001433        27.2504 
  23   0.0000       1.391901        37.8756 
  24   0.0000       1.600852        43.5614 
  25   0.0000       1.622492        44.1502 
  26   0.0000       2.043505        55.6066 
  27   0.0000       2.057220        55.9798 
  28   0.0000       2.058657        56.0189 
  29   0.0000       2.600726        70.7694 
  30   0.0000       2.601496        70.7903 
  31   0.0000       2.846528        77.4580 
  32   0.0000       2.897018        78.8319 
  33   0.0000       3.314479        90.1916 

                 SPIN DOWN ORBITALS
  NO   OCC          E(Eh)            E(eV) 
   0   1.0000     -19.142422      -520.8918 
   1   1.0000     -10.234259      -278.4883 
   2   1.0000      -0.941295       -25.6139 
   3   1.0000      -0.642297       -17.4778 
   4   1.0000      -0.453293       -12.3347 
   5   1.0000      -0.444367       -12.0918 
   6   1.0000      -0.396892       -10.8000 
   7   1.0000      -0.257306        -7.0017 
   8   0.0000      -0.124437        -3.3861 
   9   0.0000       0.067475         1.8361 
  10   0.0000       0.124150         3.3783 
  11   0.0000       0.127273         3.4633 
  12   0.0000       0.159423         4.3381 
  13   0.0000       0.453140        12.3306 
  14   0.0000       0.469388        12.7727 
  15   0.0000       0.486563        13.2401 
  16   0.0000       0.644528        17.5385 
  17   0.0000       0.652139        17.7456 
  18   0.0000       0.662256        18.0209 
  19   0.0000       0.671298        18.2669 
  20   0.0000       0.946155        25.7462 
  21   0.0000       1.015790        27.6410 
  22   0.0000       1.031498        28.0685 
  23   0.0000       1.415608        38.5207 
  24   0.0000       1.611734        43.8575 
  25   0.0000       1.622652        44.1546 
  26   0.0000       2.045040        55.6484 
  27   0.0000       2.062134        56.1135 
  28   0.0000       2.067040        56.2470 
  29   0.0000       2.675066        72.7922 
  30   0.0000       2.684259        73.0424 
  31   0.0000       2.908351        79.1402 
  32   0.0000       2.915295        79.3292 
  33   0.0000       3.343724        90.9874 

                    ********************************
                    * MULLIKEN POPULATION ANALYSIS *
                    ********************************

------------------------------------------
FOD BASED MULLIKEN REDUCED ORBITAL CHARGES
------------------------------------------
  0 C s       :     0.000000  s :     0.000000
      pz      :     0.000001  p :     0.000001
      px      :     0.000000
      py      :     0.000001
      dz2     :     0.000000  d :     0.000001
      dxz     :     0.000000
      dyz     :     0.000000
      dx2y2   :     0.000000
      dxy     :     0.000000
  1 O s       :    -0.000000  s :    -0.000000
      pz      :     0.000023  p :     0.000047
      px      :     0.000004
      py      :     0.000020
      dz2     :    -0.000000  d :     0.000000
      dxz     :     0.000000
      dyz     :     0.000000
      dx2y2   :     0.000000
      dxy     :    -0.000000
  2 H s       :     0.000002  s :     0.000002
  3 H s       :     0.000003  s :     0.000003
  4 H s       :     0.000002  s :     0.000002


                     *******************************
                     * LOEWDIN POPULATION ANALYSIS *
                     *******************************

-------------------------------------------
LOEWDIN ATOMIC CHARGES AND SPIN POPULATIONS
-------------------------------------------
   0 C :   -0.212501   -0.017906
   1 O :   -0.139049    0.919494
   2 H :    0.119178    0.033244
   3 H :    0.096611    0.001127
   4 H :    0.135761    0.064041

----------------------------------------------------
LOEWDIN REDUCED ORBITAL CHARGES AND SPIN POPULATIONS
----------------------------------------------------
CHARGE
  0 C s       :     2.979702  s :     2.979702
      pz      :     1.109591  p :     3.107993
      px      :     0.896882
      py      :     1.101520
      dz2     :     0.026091  d :     0.124805
      dxz     :     0.020398
      dyz     :     0.013210
      dx2y2   :     0.033086
      dxy     :     0.032020
  1 O s       :     3.699529  s :     3.699529
      pz      :     1.393515  p :     4.422543
      px      :     1.431913
      py      :     1.597115
      dz2     :     0.002635  d :     0.016977
      dxz     :     0.003013
      dyz     :     0.000547
      dx2y2   :     0.005652
      dxy     :     0.005131
  2 H s       :     0.880822  s :     0.880822
  3 H s       :     0.903389  s :     0.903389
  4 H s       :     0.864239  s :     0.864239

SPIN
  0 C s       :    -0.006719  s :    -0.006719
      pz      :    -0.002201  p :    -0.028870
      px      :    -0.022553
      py      :    -0.004116
      dz2     :     0.002002  d :     0.017684
      dxz     :     0.008818
      dyz     :     0.000222
      dx2y2   :     0.002236
      dxy     :     0.004406
  1 O s       :     0.010987  s :     0.010987
      pz      :     0.542690  p :     0.908579
      px      :     0.096438
      py      :     0.269452
      dz2     :    -0.000010  d :    -0.000072
      dxz     :     0.000016
      dyz     :     0.000099
      dx2y2   :    -0.000099
      dxy     :    -0.000078
  2 H s       :     0.033244  s :     0.033244
  3 H s       :     0.001127  s :     0.001127
  4 H s       :     0.064041  s :     0.064041


                      *****************************
                      * MAYER POPULATION ANALYSIS *
                      *****************************

  NA   - Mulliken gross atomic population
  ZA   - Total nuclear charge
  QA   - Mulliken gross atomic charge
  VA   - Mayer's total valence
  BVA  - Mayer's bonded valence
  FA   - Mayer's free valence

  ATOM       NA         ZA         QA         VA         BVA        FA
  0 C      6.0991     6.0000    -0.0991     3.9263     3.9237     0.0026
  1 O      8.2516     8.0000    -0.2516     2.0254     1.2101     0.8153
  2 H      0.8804     1.0000     0.1196     0.9532     0.9514     0.0018
  3 H      0.9010     1.0000     0.0990     0.9396     0.9395     0.0000
  4 H      0.8678     1.0000     0.1322     0.9566     0.9501     0.0065

  Mayer bond orders larger than 0.100000
B(  0-C ,  1-O ) :   1.1196 B(  0-C ,  2-H ) :   0.9388 B(  0-C ,  3-H ) :   0.9437 
B(  0-C ,  4-H ) :   0.9216 

-------
TIMINGS
-------

Total SCF time: 0 days 0 hours 11 min 1 sec 

Total time                  ....     661.519 sec
Sum of individual times     ....     514.143 sec  ( 77.7%)

Fock matrix formation       ....     455.597 sec  ( 68.9%)
  XC integration            ....     239.553 sec  ( 52.6% of F)
    Basis function eval.    ....       0.347 sec  (  0.1% of XC)
    Density eval.           ....       0.281 sec  (  0.1% of XC)
    XC-Functional eval.     ....       0.377 sec  (  0.2% of XC)
    XC-Potential eval.      ....       0.223 sec  (  0.1% of XC)
Diagonalization             ....       2.507 sec  (  0.4%)
Density matrix formation    ....      24.180 sec  (  3.7%)
Population analysis         ....       7.947 sec  (  1.2%)
Initial guess               ....       0.114 sec  (  0.0%)
Orbital Transformation      ....       0.000 sec  (  0.0%)
Orbital Orthonormalization  ....       0.000 sec  (  0.0%)
DIIS solution               ....      18.862 sec  (  2.9%)
Grid generation             ....       4.935 sec  (  0.7%)


-------------------------------------------------------------------------------
                          DFT DISPERSION CORRECTION                            
                                                                               
                              DFTD3 V3.1  Rev 1                                
                          USING Becke-Johnson damping                          
-------------------------------------------------------------------------------
The B3LYP functional is recognized
Active option DFTDOPT                   ...         4   

molecular C6(AA) [au] = 171.058092 


            DFT-D V3
 parameters
 s6 scaling factor         :     1.0000 
 a1 scaling factor         :     0.3981 
 s8 scaling factor         :     1.9889 
 a2 scaling factor         :     4.4211 
 ad hoc parameters k1-k3   :    16.0000     1.3333    -4.0000 

 Edisp/kcal,au: -1.522049223545  -0.002425539572 
 E6   /kcal   :  -0.780705131 
 E8   /kcal   :  -0.741344093 
 % E8         :  48.706972256 

-------------------------   ----------------
Dispersion correction           -0.002425540
-------------------------   ----------------


-------------------------   --------------------
FINAL SINGLE POINT ENERGY      -114.892542883959
-------------------------   --------------------

------------------------------------------------------------------------------
                         ORCA SCF GRADIENT CALCULATION
------------------------------------------------------------------------------

Gradient of the Kohn-Sham DFT energy:
Kohn-Sham wavefunction type      ... UKS
Hartree-Fock exchange scaling    ...    0.200
Number of operators              ...    2
Number of atoms                  ...    5
Basis set dimensions             ...   34
Integral neglect threshold       ... 1.0e-12
Integral primitive cutoff        ... 1.0e-14

Nuclear repulsion gradient       ... done
One Electron Gradient            ... done
Pre-screening matrix             ... done
Starting the two electron gradient:
Two electron gradient done
Exchange-correlation gradient    ... done
Dispersion correction            ... done

------------------
CARTESIAN GRADIENT
------------------

   1   C   :   -0.034025147    0.015190482    0.003239178
   2   O   :    0.014768304   -0.007142675    0.001839651
   3   H   :    0.011747871    0.000641187    0.000886017
   4   H   :    0.003088001   -0.007469284    0.001328912
   5   H   :    0.004420972   -0.001219709   -0.007293757

Difference to translation invariance:
           :   -0.0000000000    0.0000000000   -0.0000000000

Norm of the cartesian gradient     ...    0.0441813393
RMS gradient                       ...    0.0114075728
MAX gradient                       ...    0.0340251473

-------
TIMINGS
-------

Total SCF gradient time            ...        2.135 sec

One electron gradient       ....       0.004 sec  (  0.2%)
Prescreening matrices       ....       0.008 sec  (  0.4%)
Two electron gradient       ....       0.077 sec  (  3.6%)
XC gradient                 ....       0.469 sec  ( 22.0%)
------------------------------------------------------------------------------
                         ORCA GEOMETRY RELAXATION STEP
------------------------------------------------------------------------------

Reading the OPT-File                    .... done
Getting information on internals        .... done
Copying old internal coords+grads       .... done
Making the new internal coordinates     .... (new redundants).... done
Validating the new internal coordinates .... (new redundants).... done
Calculating the B-matrix                .... done
Calculating the G,G- and P matrices     .... done
Transforming gradient to internals      .... done
Projecting the internal gradient        .... done
Number of atoms                         ....   5
Number of internal coordinates          ....  10
Current Energy                          ....  -114.892542884 Eh
Current gradient norm                   ....     0.044181339 Eh/bohr
Maximum allowed component of the step   ....  0.300
Current trust radius                    ....  0.300
Evaluating the initial hessian          ....  (Almloef) done
Projecting the Hessian                  .... done
Forming the augmented Hessian           .... done
Diagonalizing the augmented Hessian     .... done
Last element of RFO vector              ....  0.996801818
Lowest eigenvalues of augmented Hessian:
 -0.002216378  0.284215291  0.285619170  0.314428254  0.325441500
Length of the computed step             ....  0.080169695
The final length of the internal step   ....  0.080169695
Converting the step to cartesian space:
 Initial RMS(Int)=    0.0253518835
Transforming coordinates:
 Iter   0:  RMS(Cart)=    0.0194829033 RMS(Int)=    0.0255119569
 Iter   1:  RMS(Cart)=    0.0004217787 RMS(Int)=    0.0005770487
 Iter   2:  RMS(Cart)=    0.0000111374 RMS(Int)=    0.0000114883
 Iter   3:  RMS(Cart)=    0.0000003380 RMS(Int)=    0.0000004613
 Iter   4:  RMS(Cart)=    0.0000000108 RMS(Int)=    0.0000000126
done
Storing new coordinates                 .... done

                                .--------------------.
          ----------------------|Geometry convergence|-------------------------
          Item                value                   Tolerance       Converged
          ---------------------------------------------------------------------
          RMS gradient        0.0089717620            0.0001000000      NO
          MAX gradient        0.0160479543            0.0003000000      NO
          RMS step            0.0253518835            0.0020000000      NO
          MAX step            0.0508867302            0.0040000000      NO
          ........................................................
          Max(Bonds)      0.0158      Max(Angles)    2.92
          Max(Dihed)        0.00      Max(Improp)    0.00
          ---------------------------------------------------------------------

The optimization has not yet converged - more geometry cycles are needed


    ---------------------------------------------------------------------------
                         Redundant Internal Coordinates
                            (Angstroem and degrees)

        Definition                    Value    dE/dq     Step     New-Value
    ----------------------------------------------------------------------------
     1. B(O   1,C   0)                1.4021  0.016048 -0.0158    1.3863   
     2. B(H   2,C   0)                1.1087 -0.001410  0.0022    1.1109   
     3. B(H   3,C   0)                1.0987 -0.007722  0.0116    1.1104   
     4. B(H   4,C   0)                1.1176  0.002099 -0.0034    1.1142   
     5. A(O   1,C   0,H   3)          113.07 -0.002413    0.50    113.57   
     6. A(H   2,C   0,H   3)          112.31  0.004293   -0.72    111.59   
     7. A(O   1,C   0,H   4)          104.07 -0.005611    1.05    105.11   
     8. A(H   2,C   0,H   4)          112.54  0.015121   -2.92    109.62   
     9. A(H   3,C   0,H   4)          108.79  0.001786   -0.23    108.56   
    10. A(O   1,C   0,H   2)          105.82 -0.013921    2.44    108.26   
    ----------------------------------------------------------------------------

Time needed for optimization step       :     1.62 sec

         *************************************************************
         *                GEOMETRY OPTIMIZATION CYCLE   2            *
         *************************************************************
---------------------------------
CARTESIAN COORDINATES (ANGSTROEM)
---------------------------------
  C     -0.364077   -0.003776    0.009929
  O      0.924301   -0.489764   -0.150605
  H     -0.618048   -0.042121    1.090728
  H     -0.509321    1.014782   -0.407646
  H     -1.013909   -0.713079   -0.552193

----------------------------
CARTESIAN COORDINATES (A.U.)
----------------------------
  NO LB      ZA    FRAG     MASS         X           Y           Z
   0 C     6.0000    0    12.011   -0.688006   -0.007135    0.018764
   1 O     8.0000    0    15.999    1.746676   -0.925520   -0.284602
   2 H     1.0000    0     1.008   -1.167942   -0.079597    2.061177
   3 H     1.0000    0     1.008   -0.962477    1.917661   -0.770340
   4 H     1.0000    0     1.008   -1.916011   -1.347523   -1.043493

--------------------------------
INTERNAL COORDINATES (ANGSTROEM)
--------------------------------
 C      0   0   0     0.000000000000     0.00000000     0.00000000
 O      1   0   0     1.386316665477     0.00000000     0.00000000
 H      1   2   0     1.110899364693   108.24179537     0.00000000
 H      1   2   3     1.110372044116   113.55261147   124.46750370
 H      1   2   3     1.114169632123   105.09631151   242.94617750

---------------------------
INTERNAL COORDINATES (A.U.)
---------------------------
 C      0   0   0     0.000000000000     0.00000000     0.00000000
 O      1   0   0     2.619758832643     0.00000000     0.00000000
 H      1   2   0     2.099295561618   108.24179537     0.00000000
 H      1   2   3     2.098299070141   113.55261147   124.46750370
 H      1   2   3     2.105475471443   105.09631151   242.94617750


Diagonalization of the overlap matrix:
Smallest eigenvalue                        ... 1.237e-02
Time for diagonalization                   ...    0.000 sec
Threshold for overlap eigenvalues          ... 1.000e-08
Number of eigenvalues below threshold      ... 0
Time for construction of square roots      ...    0.214 sec
Total time needed                          ...    0.214 sec

-------------------
DFT GRID GENERATION
-------------------

General Integration Accuracy     IntAcc      ...  4.340
Radial Grid Type                 RadialGrid  ... Gauss-Chebyshev
Angular Grid (max. acc.)         AngularGrid ... Lebedev-110
Angular grid pruning method      GridPruning ... 3 (G Style)
Weight generation scheme         WeightScheme... Becke
Basis function cutoff            BFCut       ...    1.0000e-12
Integration weight cutoff        WCut        ...    1.0000e-14
Grids for H and He will be reduced by one unit

# of grid points (after initial pruning)     ...   5754 (   0.0 sec)
# of grid points (after weights+screening)   ...   5640 (   0.0 sec)
nearest neighbour list constructed           ...    0.0 sec
Grid point re-assignment to atoms done       ...    0.0 sec
Grid point division into batches done        ...    0.0 sec
Reduced shell lists constructed in    0.0 sec

Total number of grid points                  ...     5640
Total number of batches                      ...       91
Average number of points per batch           ...       61
Average number of grid points per atom       ...     1128
Average number of shells per batch           ...    16.12 (89.55%)
Average number of basis functions per batch  ...    30.68 (90.25%)
Average number of large shells per batch     ...    15.10 (93.66%)
Average number of large basis fcns per batch ...    28.40 (92.56%)
Maximum spatial batch extension              ...  25.60, 22.36, 19.82 au
Average spatial batch extension              ...   4.89,  4.66,  4.62 au

Time for grid setup =    0.453 sec

--------------
SCF ITERATIONS
--------------
ITER       Energy         Delta-E        Max-DP      RMS-DP      [F,P]     Damp
               ***  Starting incremental Fock matrix formation  ***
  0   -114.8917525090   0.000000000000 0.00095509  0.00012436  0.0060545 0.7000
  1   -114.8918315370  -0.000079028037 0.00093412  0.00011638  0.0047921 0.7000
                               ***Turning on DIIS***
  2   -114.8918929853  -0.000061448238 0.00271078  0.00030965  0.0036274 0.0000
  3   -114.8920494861  -0.000156500780 0.00089219  0.00008675  0.0008508 0.0000
  4   -114.8920560571  -0.000006571060 0.00075554  0.00003519  0.0006300 0.0000
  5   -114.8920576539  -0.000001596797 0.00062965  0.00003256  0.0004361 0.0000
  6   -114.8920589480  -0.000001294101 0.00087411  0.00003795  0.0002084 0.0000
  7   -114.8920601418  -0.000001193761 0.00097913  0.00004307  0.0002103 0.0000
  8   -114.8920614125  -0.000001270757 0.00146681  0.00006522  0.0002051 0.0000
  9   -114.8920632222  -0.000001809617 0.00239066  0.00010595  0.0001940 0.0000
 10   -114.8920658904  -0.000002668260 0.00481145  0.00021352  0.0001728 0.0000
 11   -114.8920702507  -0.000004360294 0.00762659  0.00033681  0.0001289 0.0000
 12   -114.8920744022  -0.000004151449 0.00264053  0.00011672  0.0000586 0.0000
 13   -114.8920750840  -0.000000681834 0.00208935  0.00009276  0.0000326 0.0000
 14   -114.8920753460  -0.000000261993 0.00098357  0.00004334  0.0000222 0.0000
 15   -114.8920753850  -0.000000039004 0.00020508  0.00000920  0.0000067 0.0000
 16   -114.8920753863  -0.000000001264 0.00000380  0.00000017  0.0000006 0.0000
 17   -114.8920753863  -0.000000000002 0.00000082  0.00000004  0.0000002 0.0000
 18   -114.8920753863  -0.000000000000 0.00000062  0.00000003  0.0000001 0.0000
                 **** Energy Check signals convergence ****

 Fermi smearing  (ALPHA): E(HOMO(Eh)) = -0.330352 MUE = -0.107191 gap=   9.410 eV
 Fermi smearing   (BETA): E(HOMO(Eh)) = -0.258195 MUE = -0.192496 gap=   3.576 eV

N_FOD(alpha) =  0.000000
 N_FOD(beta) =  0.000063
       N_FOD =  0.000063

               *****************************************************
               *                     SUCCESS                       *
               *           SCF CONVERGED AFTER  19 CYCLES          *
               *****************************************************

Setting up the final grid:

General Integration Accuracy     IntAcc      ...  4.670
Radial Grid Type                 RadialGrid  ... Gauss-Chebyshev
Angular Grid (max. acc.)         AngularGrid ... Lebedev-302
Angular grid pruning method      GridPruning ... 3 (G Style)
Weight generation scheme         WeightScheme... Becke
Basis function cutoff            BFCut       ...    1.0000e-12
Integration weight cutoff        WCut        ...    1.0000e-14
Grids for H and He will be reduced by one unit

# of grid points (after initial pruning)     ...  22606 (   0.0 sec)
# of grid points (after weights+screening)   ...  22062 (   0.0 sec)
nearest neighbour list constructed           ...    0.0 sec
Grid point re-assignment to atoms done       ...    0.0 sec
Grid point division into batches done        ...    0.1 sec
Reduced shell lists constructed in    0.1 sec

Total number of grid points                  ...    22062
Total number of batches                      ...      348
Average number of points per batch           ...       63
Average number of grid points per atom       ...     4412
Average number of shells per batch           ...    15.04 (83.54%)
Average number of basis functions per batch  ...    28.55 (83.97%)
Average number of large shells per batch     ...    13.96 (92.82%)
Average number of large basis fcns per batch ...    26.39 (92.42%)
Maximum spatial batch extension              ...  20.64, 20.64, 20.64 au
Average spatial batch extension              ...   3.11,  3.08,  3.17 au

Final grid set up in    1.1 sec
Final integration                            ... done (  14.5 sec)
Change in XC energy                          ...     0.000173764
Integrated number of electrons               ...    16.999962553
Previous integrated no of electrons          ...    17.001705494
Total Energy       :         -114.89190162 Eh           -3126.36758 eV
  Last Energy change         ...    3.2685e-13  Tolerance :   1.0000e-09
  Last MAX-Density change    ...    1.0783e-07  Tolerance :   1.0000e-08
             **** THE GBW FILE WAS UPDATED (orca3.gbw) ****
             **** DENSITY FILE WAS UPDATED (orca3.scfp) ****
             **** ENERGY FILE WAS UPDATED (orca3.en.tmp) ****
             **** THE GBW FILE WAS UPDATED (orca3.gbw) ****
             **** DENSITY FILE WAS UPDATED (orca3.scfp) ****
Total SCF time: 0 days 0 hours 8 min 29 sec 


-------------------------------------------------------------------------------
                          DFT DISPERSION CORRECTION                            
                                                                               
                              DFTD3 V3.1  Rev 1                                
                          USING Becke-Johnson damping                          
-------------------------------------------------------------------------------
-------------------------   ----------------
Dispersion correction           -0.002425452
-------------------------   ----------------


-------------------------   --------------------
FINAL SINGLE POINT ENERGY      -114.894327073847
-------------------------   --------------------

------------------------------------------------------------------------------
                         ORCA SCF GRADIENT CALCULATION
------------------------------------------------------------------------------

Gradient of the Kohn-Sham DFT energy:
Kohn-Sham wavefunction type      ... UKS
Hartree-Fock exchange scaling    ...    0.200
Number of operators              ...    2
Number of atoms                  ...    5
Basis set dimensions             ...   34
Integral neglect threshold       ... 1.0e-12
Integral primitive cutoff        ... 1.0e-14

Nuclear repulsion gradient       ... done
One Electron Gradient            ... done
Pre-screening matrix             ... done
Starting the two electron gradient:
Two electron gradient done
Exchange-correlation gradient    ... done
Dispersion correction            ... done

------------------
CARTESIAN GRADIENT
------------------

   1   C   :   -0.024194730    0.004706323    0.000713491
   2   O   :    0.010864441   -0.004551389    0.001562865
   3   H   :    0.007750797    0.000248275    0.000791731
   4   H   :    0.001935852   -0.000951769   -0.000167640
   5   H   :    0.003643640    0.000548560   -0.002900447

Difference to translation invariance:
           :   -0.0000000000    0.0000000000    0.0000000000

Norm of the cartesian gradient     ...    0.0289252780
RMS gradient                       ...    0.0074684747
MAX gradient                       ...    0.0241947299

-------
TIMINGS
-------

Total SCF gradient time            ...        1.526 sec

One electron gradient       ....       0.002 sec  (  0.2%)
Prescreening matrices       ....       0.007 sec  (  0.4%)
Two electron gradient       ....       0.108 sec  (  7.1%)
XC gradient                 ....       0.369 sec  ( 24.2%)
------------------------------------------------------------------------------
                         ORCA GEOMETRY RELAXATION STEP
------------------------------------------------------------------------------

Reading the OPT-File                    .... done
Getting information on internals        .... done
Copying old internal coords+grads       .... done
Making the new internal coordinates     .... (new redundants).... done
Validating the new internal coordinates .... (new redundants).... done
Calculating the B-matrix                .... done
Calculating the G,G- and P matrices     .... done
Transforming gradient to internals      .... done
Projecting the internal gradient        .... done
Number of atoms                         ....   5
Number of internal coordinates          ....  10
Current Energy                          ....  -114.894327074 Eh
Current gradient norm                   ....     0.028925278 Eh/bohr
Maximum allowed component of the step   ....  0.300
Current trust radius                    ....  0.300
Updating the Hessian (BFGS)             .... done
Forming the augmented Hessian           .... done
Diagonalizing the augmented Hessian     .... done
Last element of RFO vector              ....  0.990417819
Lowest eigenvalues of augmented Hessian:
 -0.002459710  0.123364317  0.286488438  0.291743133  0.328637671
Length of the computed step             ....  0.139439517
The final length of the internal step   ....  0.139439517
Converting the step to cartesian space:
 Initial RMS(Int)=    0.0440946471
Transforming coordinates:
 Iter   0:  RMS(Cart)=    0.0328685207 RMS(Int)=    0.0444361808
 Iter   1:  RMS(Cart)=    0.0013146786 RMS(Int)=    0.0017874918
 Iter   2:  RMS(Cart)=    0.0000585958 RMS(Int)=    0.0000583556
 Iter   3:  RMS(Cart)=    0.0000034074 RMS(Int)=    0.0000047072
 Iter   4:  RMS(Cart)=    0.0000001699 RMS(Int)=    0.0000001726
 Iter   5:  RMS(Cart)=    0.0000000094 RMS(Int)=    0.0000000128
done
Storing new coordinates                 .... done

                                .--------------------.
          ----------------------|Geometry convergence|-------------------------
          Item                value                   Tolerance       Converged
          ---------------------------------------------------------------------
          Energy change      -0.0017841899            0.0000050000      NO
          RMS gradient        0.0057596050            0.0001000000      NO
          MAX gradient        0.0115116512            0.0003000000      NO
          RMS step            0.0440946471            0.0020000000      NO
          MAX step            0.0871082452            0.0040000000      NO
          ........................................................
          Max(Bonds)      0.0314      Max(Angles)    4.99
          Max(Dihed)        0.00      Max(Improp)    0.00
          ---------------------------------------------------------------------

The optimization has not yet converged - more geometry cycles are needed


    ---------------------------------------------------------------------------
                         Redundant Internal Coordinates
                            (Angstroem and degrees)

        Definition                    Value    dE/dq     Step     New-Value
    ----------------------------------------------------------------------------
     1. B(O   1,C   0)                1.3863  0.011512 -0.0314    1.3549   
     2. B(H   2,C   0)                1.1109 -0.001011  0.0044    1.1153   
     3. B(H   3,C   0)                1.1104 -0.001063  0.0063    1.1167   
     4. B(H   4,C   0)                1.1142 -0.001011  0.0034    1.1176   
     5. A(O   1,C   0,H   3)          113.55 -0.001798    1.02    114.58   
     6. A(H   2,C   0,H   3)          111.57  0.002312   -1.05    110.52   
     7. A(O   1,C   0,H   4)          105.10 -0.001918    1.19    106.28   
     8. A(H   2,C   0,H   4)          109.61  0.009274   -4.99    104.61   
     9. A(H   3,C   0,H   4)          108.54  0.002124   -0.87    107.67   
    10. A(O   1,C   0,H   2)          108.24 -0.009658    4.71    112.95   
    ----------------------------------------------------------------------------

Time needed for optimization step       :     5.13 sec

         *************************************************************
         *                GEOMETRY OPTIMIZATION CYCLE   3            *
         *************************************************************
---------------------------------
CARTESIAN COORDINATES (ANGSTROEM)
---------------------------------
  C     -0.330054   -0.005546    0.012554
  O      0.924142   -0.483526   -0.172455
  H     -0.657845   -0.049412    1.077666
  H     -0.503149    1.014795   -0.406885
  H     -1.014148   -0.710267   -0.520666

----------------------------
CARTESIAN COORDINATES (A.U.)
----------------------------
  NO LB      ZA    FRAG     MASS         X           Y           Z
   0 C     6.0000    0    12.011   -0.623711   -0.010480    0.023723
   1 O     8.0000    0    15.999    1.746376   -0.913732   -0.325892
   2 H     1.0000    0     1.008   -1.243148   -0.093376    2.036493
   3 H     1.0000    0     1.008   -0.950813    1.917684   -0.768902
   4 H     1.0000    0     1.008   -1.916463   -1.342211   -0.983917

--------------------------------
INTERNAL COORDINATES (ANGSTROEM)
--------------------------------
 C      0   0   0     0.000000000000     0.00000000     0.00000000
 O      1   0   0     1.354880603096     0.00000000     0.00000000
 H      1   2   0     1.115273974394   112.86754456     0.00000000
 H      1   2   3     1.116684928669   114.49075728   127.47773088
 H      1   2   3     1.117560614744   106.20228645   246.03541984

---------------------------
INTERNAL COORDINATES (A.U.)
---------------------------
 C      0   0   0     0.000000000000     0.00000000     0.00000000
 O      1   0   0     2.560353284014     0.00000000     0.00000000
 H      1   2   0     2.107562375895   112.86754456     0.00000000
 H      1   2   3     2.110228693062   114.49075728   127.47773088
 H      1   2   3     2.111883499923   106.20228645   246.03541984


Diagonalization of the overlap matrix:
Smallest eigenvalue                        ... 1.261e-02
Time for diagonalization                   ...    0.000 sec
Threshold for overlap eigenvalues          ... 1.000e-08
Number of eigenvalues below threshold      ... 0
Time for construction of square roots      ...    3.121 sec
Total time needed                          ...    3.122 sec

-------------------
DFT GRID GENERATION
-------------------

General Integration Accuracy     IntAcc      ...  4.340
Radial Grid Type                 RadialGrid  ... Gauss-Chebyshev
Angular Grid (max. acc.)         AngularGrid ... Lebedev-110
Angular grid pruning method      GridPruning ... 3 (G Style)
Weight generation scheme         WeightScheme... Becke
Basis function cutoff            BFCut       ...    1.0000e-12
Integration weight cutoff        WCut        ...    1.0000e-14
Grids for H and He will be reduced by one unit

# of grid points (after initial pruning)     ...   5754 (   0.0 sec)
# of grid points (after weights+screening)   ...   5647 (   0.0 sec)
nearest neighbour list constructed           ...    0.0 sec
Grid point re-assignment to atoms done       ...    0.0 sec
Grid point division into batches done        ...    0.0 sec
Reduced shell lists constructed in    0.0 sec

Total number of grid points                  ...     5647
Total number of batches                      ...       91
Average number of points per batch           ...       62
Average number of grid points per atom       ...     1129
Average number of shells per batch           ...    16.09 (89.37%)
Average number of basis functions per batch  ...    30.61 (90.03%)
Average number of large shells per batch     ...    15.10 (93.85%)
Average number of large basis fcns per batch ...    28.47 (93.00%)
Maximum spatial batch extension              ...  25.60, 22.37, 19.86 au
Average spatial batch extension              ...   4.94,  4.72,  4.66 au

Time for grid setup =    0.474 sec

--------------
SCF ITERATIONS
--------------
ITER       Energy         Delta-E        Max-DP      RMS-DP      [F,P]     Damp
               ***  Starting incremental Fock matrix formation  ***
  0   -114.8920510327   0.000000000000 0.00153251  0.00021822  0.0109067 0.7000
  1   -114.8923444818  -0.000293449045 0.00155840  0.00020992  0.0085071 0.7000
                               ***Turning on DIIS***
  2   -114.8925777515  -0.000233269752 0.00485918  0.00057306  0.0063666 0.0000
  3   -114.8931868918  -0.000609140275 0.00114949  0.00011609  0.0016879 0.0000
  4   -114.8932108857  -0.000023993919 0.00109483  0.00006210  0.0010027 0.0000
  5   -114.8932209377  -0.000010051960 0.00221970  0.00011316  0.0005904 0.0000
  6   -114.8932322643  -0.000011326610 0.00169064  0.00007401  0.0004374 0.0000
  7   -114.8932373730  -0.000005108734 0.00175453  0.00007765  0.0004401 0.0000
  8   -114.8932422631  -0.000004890118 0.00231657  0.00010440  0.0004289 0.0000
  9   -114.8932484397  -0.000006176538 0.00516132  0.00023126  0.0004048 0.0000
 10   -114.8932606082  -0.000012168521 0.01027956  0.00046323  0.0003462 0.0000
 11   -114.8932788307  -0.000018222524 0.00958871  0.00043198  0.0002241 0.0000
 12   -114.8932884996  -0.000009668885 0.00357816  0.00016452  0.0001074 0.0000
 13   -114.8932903695  -0.000001869892 0.00340231  0.00015425  0.0000601 0.0000
 14   -114.8932911742  -0.000000804717 0.00112464  0.00005205  0.0000417 0.0000
 15   -114.8932912459  -0.000000071630 0.00018922  0.00000885  0.0000054 0.0000
 16   -114.8932912474  -0.000000001499 0.00002066  0.00000094  0.0000013 0.0000
 17   -114.8932912474  -0.000000000038 0.00000051  0.00000004  0.0000003 0.0000
 18   -114.8932912474  -0.000000000003 0.00000398  0.00000019  0.0000002 0.0000
 19   -114.8932912474  -0.000000000001 0.00000135  0.00000006  0.0000002 0.0000
               *** Restarting incremental Fock matrix formation ***
                                   *** Resetting DIIS ***
                 **** Energy Check signals convergence ****

 Fermi smearing  (ALPHA): E(HOMO(Eh)) = -0.326108 MUE = -0.107800 gap=   9.404 eV
 Fermi smearing   (BETA): E(HOMO(Eh)) = -0.259402 MUE = -0.194757 gap=   3.518 eV

N_FOD(alpha) =  0.000000
 N_FOD(beta) =  0.000074
       N_FOD =  0.000074

               *****************************************************
               *                     SUCCESS                       *
               *           SCF CONVERGED AFTER  20 CYCLES          *
               *****************************************************

Setting up the final grid:

General Integration Accuracy     IntAcc      ...  4.670
Radial Grid Type                 RadialGrid  ... Gauss-Chebyshev
Angular Grid (max. acc.)         AngularGrid ... Lebedev-302
Angular grid pruning method      GridPruning ... 3 (G Style)
Weight generation scheme         WeightScheme... Becke
Basis function cutoff            BFCut       ...    1.0000e-12
Integration weight cutoff        WCut        ...    1.0000e-14
Grids for H and He will be reduced by one unit

# of grid points (after initial pruning)     ...  22606 (   0.0 sec)
# of grid points (after weights+screening)   ...  22059 (   0.0 sec)
nearest neighbour list constructed           ...    0.0 sec
Grid point re-assignment to atoms done       ...    0.0 sec
Grid point division into batches done        ...    0.1 sec
Reduced shell lists constructed in    0.1 sec

Total number of grid points                  ...    22059
Total number of batches                      ...      347
Average number of points per batch           ...       63
Average number of grid points per atom       ...     4412
Average number of shells per batch           ...    15.03 (83.48%)
Average number of basis functions per batch  ...    28.54 (83.95%)
Average number of large shells per batch     ...    13.95 (92.81%)
Average number of large basis fcns per batch ...    26.39 (92.45%)
Maximum spatial batch extension              ...  20.64, 20.64, 20.64 au
Average spatial batch extension              ...   3.10,  3.10,  3.20 au

Final grid set up in    0.6 sec
Final integration                            ... done (   9.5 sec)
Change in XC energy                          ...     0.000131938
Integrated number of electrons               ...    16.999961446
Previous integrated no of electrons          ...    17.000953653
Total Energy       :         -114.89315931 Eh           -3126.40181 eV
  Last Energy change         ...    1.9895e-12  Tolerance :   1.0000e-09
  Last MAX-Density change    ...    3.4624e-07  Tolerance :   1.0000e-08
             **** THE GBW FILE WAS UPDATED (orca3.gbw) ****
             **** DENSITY FILE WAS UPDATED (orca3.scfp) ****
             **** ENERGY FILE WAS UPDATED (orca3.en.tmp) ****
             **** THE GBW FILE WAS UPDATED (orca3.gbw) ****
             **** DENSITY FILE WAS UPDATED (orca3.scfp) ****
Total SCF time: 0 days 0 hours 7 min 53 sec 


-------------------------------------------------------------------------------
                          DFT DISPERSION CORRECTION                            
                                                                               
                              DFTD3 V3.1  Rev 1                                
                          USING Becke-Johnson damping                          
-------------------------------------------------------------------------------
-------------------------   ----------------
Dispersion correction           -0.002426095
-------------------------   ----------------


-------------------------   --------------------
FINAL SINGLE POINT ENERGY      -114.895585404152
-------------------------   --------------------

------------------------------------------------------------------------------
                         ORCA SCF GRADIENT CALCULATION
------------------------------------------------------------------------------

Gradient of the Kohn-Sham DFT energy:
Kohn-Sham wavefunction type      ... UKS
Hartree-Fock exchange scaling    ...    0.200
Number of operators              ...    2
Number of atoms                  ...    5
Basis set dimensions             ...   34
Integral neglect threshold       ... 1.0e-12
Integral primitive cutoff        ... 1.0e-14

Nuclear repulsion gradient       ... done
One Electron Gradient            ... done
Pre-screening matrix             ... done
Starting the two electron gradient:
Two electron gradient done
Exchange-correlation gradient    ... done
Dispersion correction            ... done

------------------
CARTESIAN GRADIENT
------------------

   1   C   :   -0.001293805   -0.002926466   -0.002478818
   2   O   :   -0.000519459    0.000814379    0.000717622
   3   H   :    0.000298313   -0.000276318   -0.000517178
   4   H   :    0.000671583    0.001679464    0.000247359
   5   H   :    0.000843368    0.000708941    0.002031015

Difference to translation invariance:
           :    0.0000000000    0.0000000000    0.0000000000

Norm of the cartesian gradient     ...    0.0051899152
RMS gradient                       ...    0.0013400303
MAX gradient                       ...    0.0029264663

-------
TIMINGS
-------

Total SCF gradient time            ...        3.501 sec

One electron gradient       ....       0.003 sec  (  0.1%)
Prescreening matrices       ....       0.008 sec  (  0.2%)
Two electron gradient       ....       0.077 sec  (  2.2%)
XC gradient                 ....       0.406 sec  ( 11.6%)
------------------------------------------------------------------------------
                         ORCA GEOMETRY RELAXATION STEP
------------------------------------------------------------------------------

Reading the OPT-File                    .... done
Getting information on internals        .... done
Copying old internal coords+grads       .... done
Making the new internal coordinates     .... (new redundants).... done
Validating the new internal coordinates .... (new redundants).... done
Calculating the B-matrix                .... done
Calculating the G,G- and P matrices     .... done
Transforming gradient to internals      .... done
Projecting the internal gradient        .... done
Number of atoms                         ....   5
Number of internal coordinates          ....  10
Current Energy                          ....  -114.895585404 Eh
Current gradient norm                   ....     0.005189915 Eh/bohr
Maximum allowed component of the step   ....  0.300
Current trust radius                    ....  0.300
Updating the Hessian (BFGS)             .... done
Forming the augmented Hessian           .... done
Diagonalizing the augmented Hessian     .... done
Last element of RFO vector              ....  0.999932404
Lowest eigenvalues of augmented Hessian:
 -0.000045333  0.121682451  0.287890273  0.291577093  0.329161730
Length of the computed step             ....  0.011627775
The final length of the internal step   ....  0.011627775
Converting the step to cartesian space:
 Initial RMS(Int)=    0.0036770254
Transforming coordinates:
 Iter   0:  RMS(Cart)=    0.0029861701 RMS(Int)=    0.0036742843
 Iter   1:  RMS(Cart)=    0.0000083618 RMS(Int)=    0.0000100413
 Iter   2:  RMS(Cart)=    0.0000000180 RMS(Int)=    0.0000000244
done
Storing new coordinates                 .... done

                                .--------------------.
          ----------------------|Geometry convergence|-------------------------
          Item                value                   Tolerance       Converged
          ---------------------------------------------------------------------
          Energy change      -0.0012583303            0.0000050000      NO
          RMS gradient        0.0012564089            0.0001000000      NO
          MAX gradient        0.0021383319            0.0003000000      NO
          RMS step            0.0036770254            0.0020000000      NO
          MAX step            0.0071465861            0.0040000000      NO
          ........................................................
          Max(Bonds)      0.0029      Max(Angles)    0.41
          Max(Dihed)        0.00      Max(Improp)    0.00
          ---------------------------------------------------------------------

The optimization has not yet converged - more geometry cycles are needed


    ---------------------------------------------------------------------------
                         Redundant Internal Coordinates
                            (Angstroem and degrees)

        Definition                    Value    dE/dq     Step     New-Value
    ----------------------------------------------------------------------------
     1. B(O   1,C   0)                1.3549 -0.000866  0.0006    1.3555   
     2. B(H   2,C   0)                1.1153 -0.000571  0.0009    1.1162   
     3. B(H   3,C   0)                1.1167  0.001338 -0.0015    1.1151   
     4. B(H   4,C   0)                1.1176 -0.001932  0.0029    1.1204   
     5. A(O   1,C   0,H   3)          114.49 -0.000606    0.12    114.61   
     6. A(H   2,C   0,H   3)          110.43 -0.000491    0.09    110.52   
     7. A(O   1,C   0,H   4)          106.20  0.001326   -0.18    106.02   
     8. A(H   2,C   0,H   4)          104.53 -0.000924    0.14    104.67   
     9. A(H   3,C   0,H   4)          107.58  0.002138   -0.41    107.17   
    10. A(O   1,C   0,H   2)          112.87 -0.001180    0.25    113.11   
    ----------------------------------------------------------------------------

Time needed for optimization step       :     3.40 sec

         *************************************************************
         *                GEOMETRY OPTIMIZATION CYCLE   4            *
         *************************************************************
---------------------------------
CARTESIAN COORDINATES (ANGSTROEM)
---------------------------------
  C     -0.328712   -0.004520    0.014791
  O      0.924796   -0.484610   -0.173865
  H     -0.658704   -0.048163    1.080199
  H     -0.504700    1.012457   -0.407483
  H     -1.013735   -0.709120   -0.523428

----------------------------
CARTESIAN COORDINATES (A.U.)
----------------------------
  NO LB      ZA    FRAG     MASS         X           Y           Z
   0 C     6.0000    0    12.011   -0.621175   -0.008541    0.027951
   1 O     8.0000    0    15.999    1.747612   -0.915781   -0.328557
   2 H     1.0000    0     1.008   -1.244771   -0.091016    2.041280
   3 H     1.0000    0     1.008   -0.953744    1.913267   -0.770032
   4 H     1.0000    0     1.008   -1.915681   -1.340043   -0.989136

--------------------------------
INTERNAL COORDINATES (ANGSTROEM)
--------------------------------
 C      0   0   0     0.000000000000     0.00000000     0.00000000
 O      1   0   0     1.355492735342     0.00000000     0.00000000
 H      1   2   0     1.116196074902   113.10356548     0.00000000
 H      1   2   3     1.115136339873   114.59775049   127.90299084
 H      1   2   3     1.120445598990   106.00963078   245.87345601

---------------------------
INTERNAL COORDINATES (A.U.)
---------------------------
 C      0   0   0     0.000000000000     0.00000000     0.00000000
 O      1   0   0     2.561510046316     0.00000000     0.00000000
 H      1   2   0     2.109304893323   113.10356548     0.00000000
 H      1   2   3     2.107302284344   114.59775049   127.90299084
 H      1   2   3     2.117335330048   106.00963078   245.87345601


Diagonalization of the overlap matrix:
Smallest eigenvalue                        ... 1.265e-02
Time for diagonalization                   ...    0.001 sec
Threshold for overlap eigenvalues          ... 1.000e-08
Number of eigenvalues below threshold      ... 0
Time for construction of square roots      ...    5.855 sec
Total time needed                          ...    5.856 sec

-------------------
DFT GRID GENERATION
-------------------

General Integration Accuracy     IntAcc      ...  4.340
Radial Grid Type                 RadialGrid  ... Gauss-Chebyshev
Angular Grid (max. acc.)         AngularGrid ... Lebedev-110
Angular grid pruning method      GridPruning ... 3 (G Style)
Weight generation scheme         WeightScheme... Becke
Basis function cutoff            BFCut       ...    1.0000e-12
Integration weight cutoff        WCut        ...    1.0000e-14
Grids for H and He will be reduced by one unit

# of grid points (after initial pruning)     ...   5754 (   0.0 sec)
# of grid points (after weights+screening)   ...   5646 (   0.0 sec)
nearest neighbour list constructed           ...    0.0 sec
Grid point re-assignment to atoms done       ...    0.0 sec
Grid point division into batches done        ...    0.0 sec
Reduced shell lists constructed in    0.0 sec

Total number of grid points                  ...     5646
Total number of batches                      ...       91
Average number of points per batch           ...       62
Average number of grid points per atom       ...     1129
Average number of shells per batch           ...    16.09 (89.37%)
Average number of basis functions per batch  ...    30.61 (90.03%)
Average number of large shells per batch     ...    15.10 (93.85%)
Average number of large basis fcns per batch ...    28.47 (93.00%)
Maximum spatial batch extension              ...  25.60, 22.37, 19.87 au
Average spatial batch extension              ...   4.93,  4.71,  4.65 au

Time for grid setup =    2.848 sec

--------------
SCF ITERATIONS
--------------
ITER       Energy         Delta-E        Max-DP      RMS-DP      [F,P]     Damp
               ***  Starting incremental Fock matrix formation  ***
  0   -114.8933137987   0.000000000000 0.00015058  0.00001874  0.0009155 0.7000
  1   -114.8933159213  -0.000002122610 0.00013315  0.00001702  0.0007547 0.7000
                               ***Turning on DIIS***
  2   -114.8933176143  -0.000001692946 0.00043701  0.00004958  0.0006024 0.0000
  3   -114.8933228390  -0.000005224762 0.00038550  0.00001982  0.0001724 0.0000
  4   -114.8933232854  -0.000000446386 0.00028651  0.00001282  0.0000910 0.0000
  5   -114.8933234881  -0.000000202710 0.00027768  0.00001303  0.0000886 0.0000
  6   -114.8933236724  -0.000000184281 0.00041777  0.00001835  0.0000891 0.0000
  7   -114.8933239058  -0.000000233379 0.00040027  0.00001842  0.0000863 0.0000
  8   -114.8933241246  -0.000000218866 0.00055019  0.00002479  0.0000819 0.0000
  9   -114.8933243980  -0.000000273383 0.00167069  0.00007623  0.0000755 0.0000
 10   -114.8933250873  -0.000000689276 0.00294960  0.00013454  0.0000546 0.0000
 11   -114.8933257463  -0.000000658978 0.00098150  0.00004520  0.0000169 0.0000
 12   -114.8933258079  -0.000000061608 0.00020914  0.00000960  0.0000070 0.0000
 13   -114.8933258107  -0.000000002799 0.00005469  0.00000259  0.0000030 0.0000
 14   -114.8933258108  -0.000000000145 0.00000110  0.00000008  0.0000008 0.0000
 15   -114.8933258108  -0.000000000008 0.00000926  0.00000042  0.0000003 0.0000
                 **** Energy Check signals convergence ****

 Fermi smearing  (ALPHA): E(HOMO(Eh)) = -0.325930 MUE = -0.107989 gap=   9.404 eV
 Fermi smearing   (BETA): E(HOMO(Eh)) = -0.259600 MUE = -0.194831 gap=   3.525 eV

N_FOD(alpha) =  0.000000
 N_FOD(beta) =  0.000072
       N_FOD =  0.000072

               *****************************************************
               *                     SUCCESS                       *
               *           SCF CONVERGED AFTER  16 CYCLES          *
               *****************************************************

Setting up the final grid:

General Integration Accuracy     IntAcc      ...  4.670
Radial Grid Type                 RadialGrid  ... Gauss-Chebyshev
Angular Grid (max. acc.)         AngularGrid ... Lebedev-302
Angular grid pruning method      GridPruning ... 3 (G Style)
Weight generation scheme         WeightScheme... Becke
Basis function cutoff            BFCut       ...    1.0000e-12
Integration weight cutoff        WCut        ...    1.0000e-14
Grids for H and He will be reduced by one unit

# of grid points (after initial pruning)     ...  22606 (   0.0 sec)
# of grid points (after weights+screening)   ...  22057 (   0.0 sec)
nearest neighbour list constructed           ...    0.0 sec
Grid point re-assignment to atoms done       ...    0.0 sec
Grid point division into batches done        ...    0.1 sec
Reduced shell lists constructed in    0.1 sec

Total number of grid points                  ...    22057
Total number of batches                      ...      346
Average number of points per batch           ...       63
Average number of grid points per atom       ...     4411
Average number of shells per batch           ...    15.01 (83.41%)
Average number of basis functions per batch  ...    28.52 (83.88%)
Average number of large shells per batch     ...    13.92 (92.73%)
Average number of large basis fcns per batch ...    26.31 (92.27%)
[...]
Threshold for overlap eigenvalues          ... 1.000e-08
Number of eigenvalues below threshold      ... 0
Time for construction of square roots      ...    6.002 sec
Total time needed                          ...    6.002 sec

---------------------
INITIAL GUESS: MOREAD
---------------------
Guess MOs are being read from file: orca3.gbw
Input Geometry matches current geometry (good)
Input basis set matches current basis set (good)
MOs were renormalized
MOs were reorthogonalized (Cholesky)
                      ------------------
                      INITIAL GUESS DONE (   0.0 sec)
                      ------------------
-------------------
DFT GRID GENERATION
-------------------

General Integration Accuracy     IntAcc      ...  4.340
Radial Grid Type                 RadialGrid  ... Gauss-Chebyshev
Angular Grid (max. acc.)         AngularGrid ... Lebedev-110
Angular grid pruning method      GridPruning ... 3 (G Style)
Weight generation scheme         WeightScheme... Becke
Basis function cutoff            BFCut       ...    1.0000e-12
Integration weight cutoff        WCut        ...    1.0000e-14
Grids for H and He will be reduced by one unit

# of grid points (after initial pruning)     ...   5754 (   0.0 sec)
# of grid points (after weights+screening)   ...   5641 (   0.0 sec)
nearest neighbour list constructed           ...    0.0 sec
Grid point re-assignment to atoms done       ...    0.0 sec
Grid point division into batches done        ...    0.0 sec
Reduced shell lists constructed in    0.0 sec

Total number of grid points                  ...     5641
Total number of batches                      ...       91
Average number of points per batch           ...       61
Average number of grid points per atom       ...     1128
Average number of shells per batch           ...    16.09 (89.37%)
Average number of basis functions per batch  ...    30.61 (90.03%)
Average number of large shells per batch     ...    15.13 (94.05%)
Average number of large basis fcns per batch ...    28.52 (93.18%)
Maximum spatial batch extension              ...  25.60, 22.37, 19.90 au
Average spatial batch extension              ...   4.93,  4.70,  4.65 au

Time for grid setup =    0.772 sec

--------------
SCF ITERATIONS
--------------
ITER       Energy         Delta-E        Max-DP      RMS-DP      [F,P]     Damp
               ***  Starting incremental Fock matrix formation  ***
  0   -114.8933705165   0.000000000000 0.00003537  0.00000285  0.0002290 0.7000
  1   -114.8933705737  -0.000000057279 0.00003293  0.00000280  0.0001870 0.7000
                               ***Turning on DIIS***
  2   -114.8933706207  -0.000000046912 0.00008839  0.00000863  0.0001470 0.0000
  3   -114.8933711928  -0.000000572145 0.00005769  0.00000289  0.0000337 0.0000
  4   -114.8933712031  -0.000000010312 0.00004367  0.00000186  0.0000129 0.0000
  5   -114.8933712069  -0.000000003781 0.00003128  0.00000154  0.0000118 0.0000
  6   -114.8933712095  -0.000000002635 0.00004471  0.00000213  0.0000111 0.0000
  7   -114.8933712128  -0.000000003259 0.00004555  0.00000223  0.0000102 0.0000
  8   -114.8933712159  -0.000000003143 0.00005344  0.00000259  0.0000094 0.0000
  9   -114.8933712193  -0.000000003361 0.00015341  0.00000747  0.0000085 0.0000
 10   -114.8933712273  -0.000000007960 0.00025490  0.00001237  0.0000061 0.0000
 11   -114.8933712347  -0.000000007470 0.00012536  0.00000609  0.0000021 0.0000
 12   -114.8933712358  -0.000000001059 0.00001426  0.00000069  0.0000003 0.0000
 13   -114.8933712358  -0.000000000013 0.00000057  0.00000003  0.0000002 0.0000
 14   -114.8933712358   0.000000000001 0.00000014  0.00000001  0.0000002 0.0000
                 **** Energy Check signals convergence ****

 Fermi smearing  (ALPHA): E(HOMO(Eh)) = -0.325581 MUE = -0.108075 gap=   9.406 eV
 Fermi smearing   (BETA): E(HOMO(Eh)) = -0.259770 MUE = -0.194725 gap=   3.540 eV

N_FOD(alpha) =  0.000000
 N_FOD(beta) =  0.000069
       N_FOD =  0.000069

               *****************************************************
               *                     SUCCESS                       *
               *           SCF CONVERGED AFTER  15 CYCLES          *
               *****************************************************

Setting up the final grid:

General Integration Accuracy     IntAcc      ...  4.670
Radial Grid Type                 RadialGrid  ... Gauss-Chebyshev
Angular Grid (max. acc.)         AngularGrid ... Lebedev-302
Angular grid pruning method      GridPruning ... 3 (G Style)
Weight generation scheme         WeightScheme... Becke
Basis function cutoff            BFCut       ...    1.0000e-12
Integration weight cutoff        WCut        ...    1.0000e-14
Grids for H and He will be reduced by one unit

# of grid points (after initial pruning)     ...  22606 (   0.0 sec)
# of grid points (after weights+screening)   ...  22058 (   0.0 sec)
nearest neighbour list constructed           ...    0.0 sec
Grid point re-assignment to atoms done       ...    0.0 sec
Grid point division into batches done        ...    0.1 sec
Reduced shell lists constructed in    0.2 sec

Total number of grid points                  ...    22058
Total number of batches                      ...      347
Average number of points per batch           ...       63
Average number of grid points per atom       ...     4412
Average number of shells per batch           ...    15.04 (83.54%)
Average number of basis functions per batch  ...    28.55 (83.97%)
Average number of large shells per batch     ...    13.96 (92.83%)
Average number of large basis fcns per batch ...    26.36 (92.32%)
Maximum spatial batch extension              ...  20.64, 20.64, 20.64 au
Average spatial batch extension              ...   3.15,  3.12,  3.18 au

Final grid set up in    2.6 sec
Final integration                            ... done (   9.9 sec)
Change in XC energy                          ...     0.000132896
Integrated number of electrons               ...    16.999963587
Previous integrated no of electrons          ...    17.000865990

----------------
TOTAL SCF ENERGY
----------------

Total Energy       :         -114.89323834 Eh           -3126.40396 eV

Components:
Nuclear Repulsion  :           34.36898903 Eh             935.22774 eV
Electronic Energy  :         -149.26222737 Eh           -4061.63170 eV
One Electron Energy:         -224.22642238 Eh           -6101.51115 eV
Two Electron Energy:           74.96419501 Eh            2039.87945 eV

Virial components:
Potential Energy   :         -228.98123177 Eh           -6230.89609 eV
Kinetic Energy     :          114.08799343 Eh            3104.49213 eV
Virial Ratio       :            2.00705810


DFT components:
N(Alpha)           :        8.999981796366 electrons
N(Beta)            :        7.999981790191 electrons
N(Total)           :       16.999963586557 electrons
E(X)               :      -11.455803108589 Eh       
E(C)               :       -0.662002420464 Eh       
E(XC)              :      -12.117805529053 Eh       
DFET-embed. en.    :        0.000000000000 Eh       

---------------
SCF CONVERGENCE
---------------

  Last Energy change         ...   -1.5632e-13  Tolerance :   1.0000e-09
  Last MAX-Density change    ...    7.3383e-07  Tolerance :   1.0000e-08
  Last RMS-Density change    ...    3.6521e-08  Tolerance :   1.0000e-09
  Last DIIS Error            ...    2.2060e-08  Tolerance :   1.0000e-08

             **** THE GBW FILE WAS UPDATED (orca3.gbw) ****
             **** DENSITY FILE WAS UPDATED (orca3.scfp) ****
             **** ENERGY FILE WAS UPDATED (orca3.en.tmp) ****
             **** THE GBW FILE WAS UPDATED (orca3.gbw) ****
             **** DENSITY FILE WAS UPDATED (orca3.scfp) ****
----------------
ORBITAL ENERGIES
----------------
                 SPIN UP ORBITALS
  NO   OCC          E(Eh)            E(eV) 
   0   1.0000     -19.168381      -521.5982 
   1   1.0000     -10.235435      -278.5203 
   2   1.0000      -1.012181       -27.5429 
   3   1.0000      -0.660381       -17.9699 
   4   1.0000      -0.482470       -13.1287 
   5   1.0000      -0.459595       -12.5062 
   6   1.0000      -0.432528       -11.7697 
   7   1.0000      -0.325581        -8.8595 
   8   1.0000      -0.280904        -7.6438 
   9   0.0000       0.064754         1.7621 
  10   0.0000       0.116279         3.1641 
  11   0.0000       0.129983         3.5370 
  12   0.0000       0.164073         4.4647 
  13   0.0000       0.430947        11.7267 
  14   0.0000       0.474173        12.9029 
  15   0.0000       0.501642        13.6504 
  16   0.0000       0.636692        17.3253 
  17   0.0000       0.650784        17.7087 
  18   0.0000       0.659275        17.9398 
  19   0.0000       0.669983        18.2312 
  20   0.0000       0.919469        25.0200 
  21   0.0000       0.949982        25.8503 
  22   0.0000       1.015138        27.6233 
  23   0.0000       1.381005        37.5791 
  24   0.0000       1.601024        43.5661 
  25   0.0000       1.610589        43.8263 
  26   0.0000       2.015223        54.8370 
  27   0.0000       2.042354        55.5753 
  28   0.0000       2.099324        57.1255 
  29   0.0000       2.601779        70.7980 
  30   0.0000       2.605638        70.9030 
  31   0.0000       2.896419        78.8156 
  32   0.0000       2.946304        80.1730 
  33   0.0000       3.359309        91.4115 

                 SPIN DOWN ORBITALS
  NO   OCC          E(Eh)            E(eV) 
   0   1.0000     -19.144879      -520.9586 
   1   1.0000     -10.236255      -278.5427 
   2   1.0000      -0.961317       -26.1588 
   3   1.0000      -0.642329       -17.4787 
   4   1.0000      -0.453867       -12.3504 
   5   1.0000      -0.438408       -11.9297 
   6   1.0000      -0.410387       -11.1672 
   7   1.0000      -0.259770        -7.0687 
   8   0.0000      -0.129680        -3.5288 
   9   0.0000       0.067254         1.8301 
  10   0.0000       0.123928         3.3722 
  11   0.0000       0.130943         3.5631 
  12   0.0000       0.173101         4.7103 
  13   0.0000       0.443950        12.0805 
  14   0.0000       0.478050        13.0084 
  15   0.0000       0.508704        13.8426 
  16   0.0000       0.644874        17.5479 
  17   0.0000       0.652850        17.7650 
  18   0.0000       0.659747        17.9526 
  19   0.0000       0.681952        18.5569 
  20   0.0000       0.936458        25.4823 
  21   0.0000       1.029036        28.0015 
  22   0.0000       1.034710        28.1559 
  23   0.0000       1.403570        38.1931 
  24   0.0000       1.610129        43.8138 
  25   0.0000       1.612969        43.8911 
  26   0.0000       2.017308        54.8938 
  27   0.0000       2.047512        55.7156 
  28   0.0000       2.109528        57.4032 
  29   0.0000       2.673336        72.7452 
  30   0.0000       2.684623        73.0523 
  31   0.0000       2.957052        80.4655 
  32   0.0000       2.960947        80.5715 
  33   0.0000       3.387584        92.1809 

                    ********************************
                    * MULLIKEN POPULATION ANALYSIS *
                    ********************************

------------------------------------------
FOD BASED MULLIKEN REDUCED ORBITAL CHARGES
------------------------------------------
  0 C s       :     0.000000  s :     0.000000
      pz      :     0.000001  p :     0.000002
      px      :     0.000000
      py      :     0.000001
      dz2     :     0.000000  d :     0.000001
      dxz     :     0.000000
      dyz     :     0.000000
      dx2y2   :     0.000000
      dxy     :     0.000000
  1 O s       :     0.000000  s :     0.000000
      pz      :     0.000027  p :     0.000056
      px      :     0.000005
      py      :     0.000024
      dz2     :    -0.000000  d :     0.000000
      dxz     :    -0.000000
      dyz     :     0.000000
      dx2y2   :     0.000000
      dxy     :    -0.000000
  2 H s       :     0.000004  s :     0.000004
  3 H s       :     0.000004  s :     0.000004
  4 H s       :     0.000004  s :     0.000004


                     *******************************
                     * LOEWDIN POPULATION ANALYSIS *
                     *******************************

-------------------------------------------
LOEWDIN ATOMIC CHARGES AND SPIN POPULATIONS
-------------------------------------------
   0 C :   -0.224024   -0.015012
   1 O :   -0.120423    0.883601
   2 H :    0.099372    0.016956
   3 H :    0.100423    0.018936
   4 H :    0.144652    0.095520

----------------------------------------------------
LOEWDIN REDUCED ORBITAL CHARGES AND SPIN POPULATIONS
----------------------------------------------------
CHARGE
  0 C s       :     2.966331  s :     2.966331
      pz      :     1.112179  p :     3.118983
      px      :     0.914185
      py      :     1.092619
      dz2     :     0.026268  d :     0.138711
      dxz     :     0.034062
      dyz     :     0.013112
      dx2y2   :     0.032532
      dxy     :     0.032738
  1 O s       :     3.670553  s :     3.670553
      pz      :     1.647825  p :     4.429973
      px      :     1.392514
      py      :     1.389633
      dz2     :     0.002867  d :     0.019897
      dxz     :     0.003815
      dyz     :     0.000670
      dx2y2   :     0.006512
      dxy     :     0.006033
  2 H s       :     0.900628  s :     0.900628
  3 H s       :     0.899577  s :     0.899577
  4 H s       :     0.855348  s :     0.855348

SPIN
  0 C s       :    -0.007584  s :    -0.007584
      pz      :    -0.005012  p :    -0.030329
      px      :    -0.020127
      py      :    -0.005189
      dz2     :     0.001101  d :     0.022901
      dxz     :     0.006163
      dyz     :     0.000383
      dx2y2   :     0.005589
      dxy     :     0.009664
  1 O s       :     0.011162  s :     0.011162
      pz      :     0.254992  p :     0.872627
      px      :     0.147329
      py      :     0.470307
      dz2     :    -0.000070  d :    -0.000189
      dxz     :    -0.000022
      dyz     :     0.000069
      dx2y2   :    -0.000108
      dxy     :    -0.000058
  2 H s       :     0.016956  s :     0.016956
  3 H s       :     0.018936  s :     0.018936
  4 H s       :     0.095520  s :     0.095520


                      *****************************
                      * MAYER POPULATION ANALYSIS *
                      *****************************

  NA   - Mulliken gross atomic population
  ZA   - Total nuclear charge
  QA   - Mulliken gross atomic charge
  VA   - Mayer's total valence
  BVA  - Mayer's bonded valence
  FA   - Mayer's free valence

  ATOM       NA         ZA         QA         VA         BVA        FA
  0 C      6.1122     6.0000    -0.1122     3.9504     3.9472     0.0032
  1 O      8.2276     8.0000    -0.2276     2.0677     1.3095     0.7582
  2 H      0.8989     1.0000     0.1011     0.9413     0.9409     0.0005
  3 H      0.8987     1.0000     0.1013     0.9417     0.9411     0.0006
  4 H      0.8626     1.0000     0.1374     0.9521     0.9378     0.0144

  Mayer bond orders larger than 0.100000
B(  0-C ,  1-O ) :   1.1888 B(  0-C ,  2-H ) :   0.9316 B(  0-C ,  3-H ) :   0.9309 
B(  0-C ,  4-H ) :   0.8959 

-------
TIMINGS
-------

Total SCF time: 0 days 0 hours 4 min 46 sec 

Total time                  ....     286.676 sec
Sum of individual times     ....     234.116 sec  ( 81.7%)

Fock matrix formation       ....     202.745 sec  ( 70.7%)
  XC integration            ....     106.958 sec  ( 52.8% of F)
    Basis function eval.    ....       0.229 sec  (  0.2% of XC)
    Density eval.           ....       0.142 sec  (  0.1% of XC)
    XC-Functional eval.     ....       0.210 sec  (  0.2% of XC)
    XC-Potential eval.      ....       0.139 sec  (  0.1% of XC)
Diagonalization             ....       0.872 sec  (  0.3%)
Density matrix formation    ....       9.209 sec  (  3.2%)
Population analysis         ....       7.401 sec  (  2.6%)
Initial guess               ....       0.002 sec  (  0.0%)
Orbital Transformation      ....       0.000 sec  (  0.0%)
Orbital Orthonormalization  ....       0.000 sec  (  0.0%)
DIIS solution               ....      10.490 sec  (  3.7%)
Grid generation             ....       3.396 sec  (  1.2%)


-------------------------------------------------------------------------------
                          DFT DISPERSION CORRECTION                            
                                                                               
                              DFTD3 V3.1  Rev 1                                
                          USING Becke-Johnson damping                          
-------------------------------------------------------------------------------
The B3LYP functional is recognized
Active option DFTDOPT                   ...         4   

molecular C6(AA) [au] = 171.073473 


            DFT-D V3
 parameters
 s6 scaling factor         :     1.0000 
 a1 scaling factor         :     0.3981 
 s8 scaling factor         :     1.9889 
 a2 scaling factor         :     4.4211 
 ad hoc parameters k1-k3   :    16.0000     1.3333    -4.0000 

 Edisp/kcal,au: -1.522336247189  -0.002425996973 
 E6   /kcal   :  -0.780953773 
 E8   /kcal   :  -0.741382474 
 % E8         :  48.700310158 

-------------------------   ----------------
Dispersion correction           -0.002425997
-------------------------   ----------------


-------------------------   --------------------
FINAL SINGLE POINT ENERGY      -114.895664336346
-------------------------   --------------------

                                *** OPTIMIZATION RUN DONE ***

                            ***************************************
                            *     ORCA property calculations      *
                            ***************************************

                                    ---------------------
                                    Active property flags
                                    ---------------------
   (+) Dipole Moment


------------------------------------------------------------------------------
                       ORCA ELECTRIC PROPERTIES CALCULATION
------------------------------------------------------------------------------

Dipole Moment Calculation                       ... on
Quadrupole Moment Calculation                   ... off
Polarizability Calculation                      ... off
GBWName                                         ... orca3.gbw
Electron density file                           ... orca3.scfp
The origin for moment calculation is the CENTER OF MASS  = ( 0.525692, -0.461637 -0.148449)

-------------
DIPOLE MOMENT
-------------
                                X             Y             Z
Electronic contribution:      2.06313      -0.73292      -0.30148
Nuclear contribution   :     -2.81478       0.92608       0.35604
                        -----------------------------------------
Total Dipole Moment    :     -0.75165       0.19316       0.05457
                        -----------------------------------------
Magnitude (a.u.)       :      0.77799
Magnitude (Debye)      :      1.97750



--------------------
Rotational spectrum 
--------------------
 
Rotational constants in cm-1:     5.161517     0.938244     0.931647 
Rotational constants in MHz : 154738.395680 28127.832611 27930.076456 

 Dipole components along the rotational axes: 
x,y,z [a.u.] :     0.770888     0.005137    -0.104779 
x,y,z [Debye]:     1.959442     0.013056    -0.266328 

 

Timings for individual modules:

Sum of individual times         ...     3721.113 sec (=  62.019 min)
GTO integral calculation        ...       80.407 sec (=   1.340 min)   2.2 %
SCF iterations                  ...     3578.874 sec (=  59.648 min)  96.2 %
SCF Gradient evaluation         ...       24.729 sec (=   0.412 min)   0.7 %
Geometry relaxation             ...       37.102 sec (=   0.618 min)   1.0 %
                             ****ORCA TERMINATED NORMALLY****
TOTAL RUN TIME: 0 days 1 hours 4 minutes 24 seconds 721 msec
