
                                 *****************
                                 * O   R   C   A *
                                 *****************

           --- An Ab Initio, DFT and Semiempirical electronic structure package ---

                  #######################################################
                  #                        -***-                        #
                  #          Department of theory and spectroscopy      #
                  #               Directorship: Frank Neese             #
                  #        Max Planck Institute fuer Kohlenforschung    #
                  #                Kaiser Wilhelm Platz 1               #
                  #                 D-45470 Muelheim/Ruhr               #
                  #                      Germany                        #
                  #                                                     #
                  #                  All rights reserved                #
                  #                        -***-                        #
                  #######################################################


                         Program Version 4.2.1 -  RELEASE  -


 With contributions from (in alphabetic order):
   Daniel Aravena         : Magnetic Suceptibility
   Michael Atanasov       : Ab Initio Ligand Field Theory (pilot matlab implementation)
   Alexander A. Auer      : GIAO ZORA, VPT2
   Ute Becker             : Parallelization
   Giovanni Bistoni       : ED, misc. LED, open-shell LED, HFLD
   Martin Brehm           : Molecular dynamics
   Dmytro Bykov           : SCF Hessian
   Vijay G. Chilkuri      : MRCI spin determinant printing, contributions to CSF-ICE
   Dipayan Datta          : RHF DLPNO-CCSD density
   Achintya Kumar Dutta   : EOM-CC, STEOM-CC
   Dmitry Ganyushin       : Spin-Orbit,Spin-Spin,Magnetic field MRCI
   Miquel Garcia          : C-PCM Hessian, Gaussian charge scheme
   Yang Guo               : DLPNO-NEVPT2, CIM, IAO-localization
   Andreas Hansen         : Spin unrestricted coupled pair/coupled cluster methods
   Benjamin Helmich-Paris : CASSCF linear response (MC-RPA)
   Lee Huntington         : MR-EOM, pCC
   Robert Izsak           : Overlap fitted RIJCOSX, COSX-SCS-MP3, EOM
   Christian Kollmar      : KDIIS, OOCD, Brueckner-CCSD(T), CCSD density
   Simone Kossmann        : Meta GGA functionals, TD-DFT gradient, OOMP2, MP2 Hessian
   Martin Krupicka        : AUTO-CI
   Lucas Lang             : DCDCAS
   Dagmar Lenk            : GEPOL surface, SMD
   Dimitrios Liakos       : Extrapolation schemes; Compound Job, initial MDCI parallelization
   Dimitrios Manganas     : Further ROCIS development; embedding schemes
   Dimitrios Pantazis     : SARC Basis sets
   Taras Petrenko         : DFT Hessian,TD-DFT gradient, ASA, ECA, R-Raman, ABS, FL, XAS/XES, NRVS
   Peter Pinski           : DLPNO-MP2, DLPNO-MP2 Gradient
   Christoph Reimann      : Effective Core Potentials
   Marius Retegan         : Local ZFS, SOC
   Christoph Riplinger    : Optimizer, TS searches, QM/MM, DLPNO-CCSD(T), (RO)-DLPNO pert. Triples
   Tobias Risthaus        : Range-separated hybrids, TD-DFT gradient, RPA, STAB
   Michael Roemelt        : Original ROCIS implementation
   Masaaki Saitow         : Open-shell DLPNO-CCSD energy and density
   Barbara Sandhoefer     : DKH picture change effects
   Avijit Sen             : IP-ROCIS
   Kantharuban Sivalingam : CASSCF convergence, NEVPT2, FIC-MRCI
   Bernardo de Souza      : ESD, SOC TD-DFT
   Georgi Stoychev        : AutoAux, RI-MP2 NMR
   Willem Van den Heuvel  : Paramagnetic NMR
   Boris Wezisla          : Elementary symmetry handling
   Frank Wennmohs         : Technical directorship


 We gratefully acknowledge several colleagues who have allowed us to
 interface, adapt or use parts of their codes:
   Stefan Grimme, W. Hujo, H. Kruse,             : VdW corrections, initial TS optimization,
                  C. Bannwarth                     DFT functionals, gCP, sTDA/sTD-DF
   Ed Valeev, F. Pavosevic, A. Kumar             : LibInt (2-el integral package), F12 methods
   Garnet Chan, S. Sharma, J. Yang, R. Olivares  : DMRG
   Ulf Ekstrom                                   : XCFun DFT Library
   Mihaly Kallay                                 : mrcc  (arbitrary order and MRCC methods)
   Andreas Klamt, Michael Diedenhofen            : otool_cosmo (COSMO solvation model)
   Jiri Pittner, Ondrej Demel                    : Mk-CCSD
   Frank Weinhold                                : gennbo (NPA and NBO analysis)
   Christopher J. Cramer and Donald G. Truhlar   : smd solvation model
   Lars Goerigk                                  : TD-DFT with DH, B97 family of functionals
   V. Asgeirsson, H. Jonsson                     : NEB implementation
   FAccTs GmbH                                   : IRC, NEB, NEB-TS, Multilevel, MM, QM/MM, CI optimization
   S Lehtola, MJT Oliveira, MAL Marques          : LibXC Library


 Your calculation uses the libint2 library for the computation of 2-el integrals
 For citations please refer to: http://libint.valeyev.net

 Your ORCA version has been built with support for libXC version: 4.2.3
 For citations please refer to: https://tddft.org/programs/libxc/

 This ORCA versions uses:
   CBLAS   interface :  Fast vector & matrix operations
   LAPACKE interface :  Fast linear algebra routines
   SCALAPACK package :  Parallel linear algebra routines


Your calculation utilizes the atom-pairwise dispersion correction
with the Becke-Johnson damping scheme (D3BJ)
Cite in your paper:
S.Grimme, S.Ehrlich, L.Goerigk, J Comput Chem, (2011), 32, 1456–1465 
S.Grimme, J.Antony, S.Ehrlich and H.Krieg, J.Chem.Phys., 132, (2010), 154104 
   

----- Orbital basis set information -----
Your calculation utilizes the basis: def2-SV(P)
   F. Weigend and R. Ahlrichs, Phys. Chem. Chem. Phys. 7, 3297 (2005).

----- AuxJ basis set information -----
Your calculation utilizes the auxiliary basis: def2/J
   F. Weigend, Phys. Chem. Chem. Phys. 8, 1057 (2006).

================================================================================
                                        WARNINGS
                       Please study these warnings very carefully!
================================================================================


WARNING: Geometry Optimization
  ===> : Switching off AutoStart
         For restart on a previous wavefunction, please use MOREAD

INFO   : the flag for use of LIBINT has been found!

================================================================================
                                       INPUT FILE
================================================================================
NAME = orca0.inp
|  1> ! UKS B3LYP def2-SV(P) def2/J D3BJ Opt
|  2> %scf Convergence VeryTight
|  3> SmearTemp 2000
|  4> maxiter 500
|  5> end
|  6> *xyz 0 2
|  7> C -0.369836 0.002581 0.002796
|  8> O 0.897985 -0.574835 -0.119094
|  9> H -0.674091 -0.11938 1.05078
| 10> H -0.314182 1.066474 -0.315483
| 11> H -1.083042 -0.524563 -0.642972
| 12> *
| 13> 
| 14>                          ****END OF INPUT****
================================================================================

                       *****************************
                       * Geometry Optimization Run *
                       *****************************

Geometry optimization settings:
Update method            Update   .... BFGS
Choice of coordinates    CoordSys .... Z-matrix Internals
Initial Hessian          InHess   .... Almoef's Model

Convergence Tolerances:
Energy Change            TolE     ....  5.0000e-06 Eh
Max. Gradient            TolMAXG  ....  3.0000e-04 Eh/bohr
RMS Gradient             TolRMSG  ....  1.0000e-04 Eh/bohr
Max. Displacement        TolMAXD  ....  4.0000e-03 bohr
RMS Displacement         TolRMSD  ....  2.0000e-03 bohr
Strict Convergence                ....  False
------------------------------------------------------------------------------
                        ORCA OPTIMIZATION COORDINATE SETUP
------------------------------------------------------------------------------

The optimization will be done in new redundant internal coordinates
Making redundant internal coordinates   ...  (new redundants) done
Evaluating the initial hessian          ...  (Almloef) done
Evaluating the coordinates              ...  done
Calculating the B-matrix                .... done
Calculating the G-matrix                .... done
Diagonalizing the G-matrix              .... done
The first mode is                       ....    1
The number of degrees of freedom        ....    9

    -----------------------------------------------------------------
                    Redundant Internal Coordinates


    -----------------------------------------------------------------
         Definition                    Initial Value    Approx d2E/dq
    -----------------------------------------------------------------
      1. B(O   1,C   0)                  1.3984         0.542511   
      2. B(H   2,C   0)                  1.0981         0.349605   
      3. B(H   3,C   0)                  1.1119         0.332294   
      4. B(H   4,C   0)                  1.0971         0.350869   
      5. A(O   1,C   0,H   3)          108.9506         0.338369   
      6. A(H   2,C   0,H   3)          113.1630         0.285879   
      7. A(O   1,C   0,H   4)          109.8570         0.341458   
      8. A(H   2,C   0,H   4)          109.1648         0.288318   
      9. A(H   3,C   0,H   4)          108.8934         0.286040   
     10. A(O   1,C   0,H   2)          106.7701         0.341252   
    -----------------------------------------------------------------

Number of atoms                         .... 5
Number of degrees of freedom            .... 10

Time needed for optimization step       :     2.83 sec

         *************************************************************
         *                GEOMETRY OPTIMIZATION CYCLE   1            *
         *************************************************************
---------------------------------
CARTESIAN COORDINATES (ANGSTROEM)
---------------------------------
  C     -0.369836    0.002581    0.002796
  O      0.897985   -0.574835   -0.119094
  H     -0.674091   -0.119380    1.050780
  H     -0.314182    1.066474   -0.315483
  H     -1.083042   -0.524563   -0.642972

----------------------------
CARTESIAN COORDINATES (A.U.)
----------------------------
  NO LB      ZA    FRAG     MASS         X           Y           Z
   0 C     6.0000    0    12.011   -0.698889    0.004877    0.005284
   1 O     8.0000    0    15.999    1.696946   -1.086281   -0.225055
   2 H     1.0000    0     1.008   -1.273847   -0.225596    1.985686
   3 H     1.0000    0     1.008   -0.593718    2.015344   -0.596176
   4 H     1.0000    0     1.008   -2.046653   -0.991280   -1.215041

--------------------------------
INTERNAL COORDINATES (ANGSTROEM)
--------------------------------
 C      0   0   0     0.000000000000     0.00000000     0.00000000
 O      1   0   0     1.398440737821     0.00000000     0.00000000
 H      1   2   0     1.098051025591   106.77006693     0.00000000
 H      1   2   3     1.111875534854   108.95055855   122.53638730
 H      1   2   3     1.097068778608   109.85703423   241.74641453

---------------------------
INTERNAL COORDINATES (A.U.)
---------------------------
 C      0   0   0     0.000000000000     0.00000000     0.00000000
 O      1   0   0     2.642670009000     0.00000000     0.00000000
 H      1   2   0     2.075015719439   106.77006693     0.00000000
 H      1   2   3     2.101140255881   108.95055855   122.53638730
 H      1   2   3     2.073159541644   109.85703423   241.74641453

---------------------
BASIS SET INFORMATION
---------------------
There are 3 groups of distinct atoms

 Group   1 Type C   : 7s4p1d contracted to 3s2p1d pattern {511/31/1}
 Group   2 Type O   : 7s4p1d contracted to 3s2p1d pattern {511/31/1}
 Group   3 Type H   : 4s contracted to 2s pattern {31}

Atom   0C    basis set group =>   1
Atom   1O    basis set group =>   2
Atom   2H    basis set group =>   3
Atom   3H    basis set group =>   3
Atom   4H    basis set group =>   3
---------------------------------
AUXILIARY/J BASIS SET INFORMATION
---------------------------------
There are 3 groups of distinct atoms

 Group   1 Type C   : 12s5p4d2f1g contracted to 6s4p3d1f1g pattern {711111/2111/211/2/1}
 Group   2 Type O   : 12s5p4d2f1g contracted to 6s4p3d1f1g pattern {711111/2111/211/2/1}
 Group   3 Type H   : 5s2p1d contracted to 3s1p1d pattern {311/2/1}

Atom   0C    basis set group =>   1
Atom   1O    basis set group =>   2
Atom   2H    basis set group =>   3
Atom   3H    basis set group =>   3
Atom   4H    basis set group =>   3
------------------------------------------------------------------------------
                           ORCA GTO INTEGRAL CALCULATION
------------------------------------------------------------------------------

                         BASIS SET STATISTICS AND STARTUP INFO

 # of primitive gaussian shells          ...   36
 # of primitive gaussian functions       ...   60
 # of contracted shells                  ...   18
 # of contracted basis functions         ...   34
 Highest angular momentum                ...    2
 Maximum contraction depth               ...    5
 Integral package used                   ... LIBINT
 Integral threshhold            Thresh   ...  1.000e-12
 Primitive cut-off              TCut     ...  1.000e-14


------------------------------ INTEGRAL EVALUATION ----------------------------


 * One electron integrals 
 Pre-screening matrix                    ... done
 Shell pair data                         ... done (   0.000 sec)

-------------------------------------------------------------------------------
                                 ORCA SCF
-------------------------------------------------------------------------------

------------
SCF SETTINGS
------------
Hamiltonian:
 Density Functional     Method          .... DFT(GTOs)
 Exchange Functional    Exchange        .... B88
   X-Alpha parameter    XAlpha          ....  0.666667
   Becke's b parameter  XBeta           ....  0.004200
 Correlation Functional Correlation     .... LYP
 LDA part of GGA corr.  LDAOpt          .... VWN-5
 Gradients option       PostSCFGGA      .... off
 Hybrid DFT is turned on
   Fraction HF Exchange ScalHFX         ....  0.200000
   Scaling of DF-GGA-X  ScalDFX         ....  0.720000
   Scaling of DF-GGA-C  ScalDFC         ....  0.810000
   Scaling of DF-LDA-C  ScalLDAC        ....  1.000000
   Perturbative correction              ....  0.000000
   Density functional embedding theory  .... OFF
   NL short-range parameter             ....  4.800000


General Settings:
 Integral files         IntName         .... orca0
 Hartree-Fock type      HFTyp           .... UHF
 Total Charge           Charge          ....    0
 Multiplicity           Mult            ....    2
 Number of Electrons    NEL             ....   17
 Basis Dimension        Dim             ....   34
 Nuclear Repulsion      ENuc            ....     33.9167142861 Eh

Convergence Acceleration:
 DIIS                   CNVDIIS         .... on
   Start iteration      DIISMaxIt       ....    12
   Startup error        DIISStart       ....  0.200000
   # of expansion vecs  DIISMaxEq       ....     5
   Bias factor          DIISBfac        ....   1.050
   Max. coefficient     DIISMaxC        ....  10.000
 Newton-Raphson         CNVNR           .... off
 SOSCF                  CNVSOSCF        .... off
 Level Shifting         CNVShift        .... on
   Level shift para.    LevelShift      ....    0.2500
   Turn off err/grad.   ShiftErr        ....    0.0010
 Zerner damping         CNVZerner       .... off
 Static damping         CNVDamp         .... on
   Fraction old density DampFac         ....    0.7000
   Max. Damping (<1)    DampMax         ....    0.9800
   Min. Damping (>=0)   DampMin         ....    0.0000
   Turn off err/grad.   DampErr         ....    0.1000
 Fernandez-Rico         CNVRico         .... off

SCF Procedure:
 Maximum # iterations   MaxIter         ....   500
 SCF integral mode      SCFMode         .... Direct
   Integral package                     .... LIBINT
 Reset frequency        DirectResetFreq ....    20
 Integral Threshold     Thresh          ....  1.000e-12 Eh
 Primitive CutOff       TCut            ....  1.000e-14 Eh

Convergence Tolerance:
 Convergence Check Mode ConvCheckMode   .... Total+1el-Energy
 Convergence forced     ConvForced      .... 0
 Energy Change          TolE            ....  1.000e-09 Eh
 1-El. energy change                    ....  1.000e-06 Eh
 DIIS Error             TolErr          ....  1.000e-08


Diagonalization of the overlap matrix:
Smallest eigenvalue                        ... 1.215e-02
Time for diagonalization                   ...    0.000 sec
Threshold for overlap eigenvalues          ... 1.000e-08
Number of eigenvalues below threshold      ... 0
Time for construction of square roots      ...    1.092 sec
Total time needed                          ...    1.092 sec

-------------------
DFT GRID GENERATION
-------------------

General Integration Accuracy     IntAcc      ...  4.340
Radial Grid Type                 RadialGrid  ... Gauss-Chebyshev
Angular Grid (max. acc.)         AngularGrid ... Lebedev-110
Angular grid pruning method      GridPruning ... 3 (G Style)
Weight generation scheme         WeightScheme... Becke
Basis function cutoff            BFCut       ...    1.0000e-12
Integration weight cutoff        WCut        ...    1.0000e-14
Grids for H and He will be reduced by one unit

# of grid points (after initial pruning)     ...   5754 (   0.0 sec)
# of grid points (after weights+screening)   ...   5655 (   0.0 sec)
nearest neighbour list constructed           ...    0.0 sec
Grid point re-assignment to atoms done       ...    0.0 sec
Grid point division into batches done        ...    0.0 sec
Reduced shell lists constructed in    0.0 sec

Total number of grid points                  ...     5655
Total number of batches                      ...       91
Average number of points per batch           ...       62
Average number of grid points per atom       ...     1131
Average number of shells per batch           ...    16.14 (89.67%)
Average number of basis functions per batch  ...    30.77 (90.51%)
Average number of large shells per batch     ...    15.12 (93.67%)
Average number of large basis fcns per batch ...    28.45 (92.44%)
Maximum spatial batch extension              ...  25.67, 22.18, 21.59 au
Average spatial batch extension              ...   4.97,  4.93,  4.68 au

Time for grid setup =    1.561 sec

------------------------------
INITIAL GUESS: MODEL POTENTIAL
------------------------------
Loading Hartree-Fock densities                     ... done
Calculating cut-offs                               ... done
Setting up the integral package                    ... done
Initializing the effective Hamiltonian             ... done
Starting the Coulomb interaction                   ... done (   0.0 sec)
Reading the grid                                   ... done
Mapping shells                                     ... done
Starting the XC term evaluation                    ... done (   0.0 sec)
  promolecular density results
     # of electrons  =     16.999677375
     EX              =    -14.150938876
     EC              =     -0.559341106
     EX+EC           =    -14.710279981
Transforming the Hamiltonian                       ... done (   0.8 sec)
Diagonalizing the Hamiltonian                      ... done (   0.0 sec)
Back transforming the eigenvectors                 ... done (   0.0 sec)
Now organizing SCF variables                       ... done
                      ------------------
                      INITIAL GUESS DONE (   2.5 sec)
                      ------------------
--------------
SCF ITERATIONS
--------------
ITER       Energy         Delta-E        Max-DP      RMS-DP      [F,P]     Damp
               ***  Starting incremental Fock matrix formation  ***
  0   -114.8448319713   0.000000000000 0.02513891  0.00213128  0.1199745 0.7000
  1   -114.8635603188  -0.018728347407 0.01573806  0.00150074  0.0575937 0.7000
                               ***Turning on DIIS***
  2   -114.8723261653  -0.008765846523 0.02798431  0.00268139  0.0280112 0.0000
  3   -114.8868454761  -0.014519310839 0.01395342  0.00121595  0.0335460 0.0000
  4   -114.8897572327  -0.002911756576 0.00375094  0.00033852  0.0043864 0.0000
  5   -114.8899031651  -0.000145932397 0.00192641  0.00017945  0.0035832 0.0000
  6   -114.8899500840  -0.000046918915 0.00219605  0.00014019  0.0009885 0.0000
  7   -114.8899679961  -0.000017912132 0.00130971  0.00005868  0.0003674 0.0000
  8   -114.8899711264  -0.000003130291 0.00100171  0.00004483  0.0003648 0.0000
  9   -114.8899734114  -0.000002284955 0.00134562  0.00005991  0.0003615 0.0000
 10   -114.8899764482  -0.000003036778 0.00159047  0.00007081  0.0003581 0.0000
 11   -114.8899800186  -0.000003570487 0.00255521  0.00011413  0.0003549 0.0000
 12   -114.8899857326  -0.000005713964 0.00472797  0.00021190  0.0003504 0.0000
 13   -114.8899962075  -0.000010474873 0.01124122  0.00051003  0.0003428 0.0000
 14   -114.8900206374  -0.000024429961 0.00105730  0.00004753  0.0003244 0.0000
 15   -114.8900228741  -0.000002236650 0.02168377  0.00101396  0.0003243 0.0000
 16   -114.8900675743  -0.000044700187 0.01502614  0.00070761  0.0002903 0.0000
 17   -114.8900369735   0.000030600829 0.01070625  0.00050075  0.0003142 0.0000
 18   -114.8900590789  -0.000022105429 0.00474233  0.00022554  0.0002981 0.0000
 19   -114.8900687104  -0.000009631563 0.03080178  0.00153949  0.0002916 0.0000
               *** Restarting incremental Fock matrix formation ***
                                   *** Resetting DIIS ***
 20   -114.8901279780  -0.000059267573 0.00081585  0.00004553  0.0004792 0.0000
 21   -114.8901306445  -0.000002666460 0.00053659  0.00002949  0.0002513 0.0000
 22   -114.8901317621  -0.000001117589 0.00044642  0.00002450  0.0002498 0.0000
 23   -114.8901326736  -0.000000911580 0.00053838  0.00002849  0.0002484 0.0000
 24   -114.8901337228  -0.000001049164 0.00065991  0.00003552  0.0002473 0.0000
 25   -114.8901350241  -0.000001301309 0.00086978  0.00004652  0.0002462 0.0000
 26   -114.8901367224  -0.000001698255 0.00083806  0.00004537  0.0002451 0.0000
 27   -114.8901383724  -0.000001650062 0.00139490  0.00007541  0.0002439 0.0000
 28   -114.8901411027  -0.000002730270 0.00210000  0.00011497  0.0002422 0.0000
 29   -114.8901452343  -0.000004131639 0.00376756  0.00020889  0.0002395 0.0000
 30   -114.8901526448  -0.000007410465 0.00562294  0.00032056  0.0002349 0.0000
 31   -114.8901637604  -0.000011115594 0.00249104  0.00014560  0.0002274 0.0000
 32   -114.8901687097  -0.000004949333 0.01355868  0.00075755  0.0002236 0.0000
 33   -114.8901930044  -0.000024294617 0.01196355  0.00066616  0.0002021 0.0000
 34   -114.8901717863   0.000021218055 0.00624781  0.00035239  0.0002210 0.0000
 35   -114.8901833195  -0.000011533194 0.00364674  0.00019869  0.0002109 0.0000
 36   -114.8901896030  -0.000006283505 0.00414816  0.00022111  0.0002044 0.0000
 37   -114.8901963780  -0.000006774959 0.01842235  0.00092969  0.0001967 0.0000
 38   -114.8902216081  -0.000025230159 0.01751907  0.00088283  0.0001725 0.0000
 39   -114.8901977929   0.000023815177 0.00588955  0.00030392  0.0001948 0.0000
               *** Restarting incremental Fock matrix formation ***
                                   *** Resetting DIIS ***
 40   -114.8902066196  -0.000008826709 0.00050233  0.00002492  0.0001828 0.0000
 41   -114.8902073251  -0.000000705405 0.00050055  0.00002520  0.0001817 0.0000
 42   -114.8902080304  -0.000000705342 0.00063754  0.00003215  0.0001807 0.0000
 43   -114.8902089242  -0.000000893826 0.00089134  0.00004475  0.0001792 0.0000
 44   -114.8902101577  -0.000001233444 0.00099299  0.00004979  0.0001773 0.0000
 45   -114.8902115150  -0.000001357312 0.00181017  0.00009000  0.0001751 0.0000
 46   -114.8902139295  -0.000002414530 0.00389558  0.00019155  0.0001711 0.0000
 47   -114.8902188903  -0.000004960746 0.00955578  0.00045718  0.0001623 0.0000
 48   -114.8902296592  -0.000010768940 0.00199211  0.00009477  0.0001395 0.0000
 49   -114.8902275749   0.000002084274 0.01471409  0.00067954  0.0001443 0.0000
 50   -114.8902409830  -0.000013408045 0.00269757  0.00012308  0.0001134 0.0000
 51   -114.8902389054   0.000002077519 0.00524760  0.00023588  0.0001147 0.0000
 52   -114.8902429523  -0.000004046857 0.01665332  0.00072908  0.0001016 0.0000
 53   -114.8902522906  -0.000009338347 0.00923856  0.00040294  0.0001600 0.0000
 54   -114.8902477797   0.000004510939 0.01874871  0.00080653  0.0000831 0.0000
 55   -114.8902556718  -0.000007892117 0.00352053  0.00014804  0.0001376 0.0000
 56   -114.8902565859  -0.000000914088 0.00200853  0.00008386  0.0001223 0.0000
 57   -114.8902570850  -0.000000499123 0.00833850  0.00034764  0.0000481 0.0000
 58   -114.8902583099  -0.000001224875 0.00031319  0.00001472  0.0000639 0.0000
 59   -114.8902582960   0.000000013931 0.00307780  0.00012783  0.0000284 0.0000
               *** Restarting incremental Fock matrix formation ***
                                   *** Resetting DIIS ***
 60   -114.8902585514  -0.000000255421 0.00003103  0.00000148  0.0000116 0.0000
 61   -114.8902585539  -0.000000002541 0.00001923  0.00000087  0.0000096 0.0000
 62   -114.8902585553  -0.000000001327 0.00002126  0.00000089  0.0000094 0.0000
 63   -114.8902585566  -0.000000001374 0.00002582  0.00000107  0.0000094 0.0000
 64   -114.8902585583  -0.000000001633 0.00003569  0.00000148  0.0000094 0.0000
 65   -114.8902585605  -0.000000002243 0.00005201  0.00000215  0.0000093 0.0000
 66   -114.8902585638  -0.000000003240 0.00007804  0.00000323  0.0000093 0.0000
 67   -114.8902585686  -0.000000004803 0.00018173  0.00000752  0.0000091 0.0000
 68   -114.8902585795  -0.000000010917 0.00033674  0.00001394  0.0000089 0.0000
 69   -114.8902585987  -0.000000019238 0.00048364  0.00002001  0.0000083 0.0000
 70   -114.8902586241  -0.000000025392 0.00112162  0.00004638  0.0000075 0.0000
 71   -114.8902586730  -0.000000048881 0.00164379  0.00006790  0.0000056 0.0000
 72   -114.8902587197  -0.000000046728 0.00057507  0.00002373  0.0000029 0.0000
 73   -114.8902587292  -0.000000009501 0.00089600  0.00003696  0.0000020 0.0000
 74   -114.8902587370  -0.000000007810 0.00034358  0.00001417  0.0000006 0.0000
 75   -114.8902587378  -0.000000000760 0.00003924  0.00000162  0.0000001 0.0000
                 **** Energy Check signals convergence ****

 Fermi smearing  (ALPHA): E(HOMO(Eh)) = -0.334565 MUE = -0.105661 gap=   9.418 eV
 Fermi smearing   (BETA): E(HOMO(Eh)) = -0.256650 MUE = -0.191945 gap=   3.521 eV

N_FOD(alpha) =  0.000000
 N_FOD(beta) =  0.000073
       N_FOD =  0.000073

               *****************************************************
               *                     SUCCESS                       *
               *           SCF CONVERGED AFTER  76 CYCLES          *
               *****************************************************

Setting up the final grid:

General Integration Accuracy     IntAcc      ...  4.670
Radial Grid Type                 RadialGrid  ... Gauss-Chebyshev
Angular Grid (max. acc.)         AngularGrid ... Lebedev-302
Angular grid pruning method      GridPruning ... 3 (G Style)
Weight generation scheme         WeightScheme... Becke
Basis function cutoff            BFCut       ...    1.0000e-12
Integration weight cutoff        WCut        ...    1.0000e-14
Grids for H and He will be reduced by one unit

# of grid points (after initial pruning)     ...  22606 (   0.0 sec)
# of grid points (after weights+screening)   ...  22062 (   0.0 sec)
nearest neighbour list constructed           ...    0.0 sec
Grid point re-assignment to atoms done       ...    0.0 sec
Grid point division into batches done        ...    0.1 sec
Reduced shell lists constructed in    0.1 sec

Total number of grid points                  ...    22062
Total number of batches                      ...      347
Average number of points per batch           ...       63
Average number of grid points per atom       ...     4412
Average number of shells per batch           ...    15.00 (83.33%)
Average number of basis functions per batch  ...    28.53 (83.92%)
Average number of large shells per batch     ...    13.95 (93.01%)
Average number of large basis fcns per batch ...    26.39 (92.50%)
Maximum spatial batch extension              ...  20.64, 20.64, 20.64 au
Average spatial batch extension              ...   3.19,  3.24,  3.19 au

Final grid set up in    7.0 sec
Final integration                            ... done (   6.3 sec)
Change in XC energy                          ...     0.000039512
Integrated number of electrons               ...    16.999981810
Previous integrated no of electrons          ...    17.001148887

----------------
TOTAL SCF ENERGY
----------------

Total Energy       :         -114.89021923 Eh           -3126.32180 eV

Components:
Nuclear Repulsion  :           33.91671429 Eh             922.92072 eV
Electronic Energy  :         -148.80693351 Eh           -4049.24252 eV
One Electron Energy:         -223.37358064 Eh           -6078.30414 eV
Two Electron Energy:           74.56664713 Eh            2029.06162 eV

Virial components:
Potential Energy   :         -228.98248011 Eh           -6230.93006 eV
Kinetic Energy     :          114.09226089 Eh            3104.60825 eV
Virial Ratio       :            2.00699397


DFT components:
N(Alpha)           :        8.999987205401 electrons
N(Beta)            :        7.999994604848 electrons
N(Total)           :       16.999981810250 electrons
E(X)               :      -11.456514666745 Eh       
E(C)               :       -0.661101027665 Eh       
E(XC)              :      -12.117615694410 Eh       
DFET-embed. en.    :        0.000000000000 Eh       

---------------
SCF CONVERGENCE
---------------

  Last Energy change         ...   -7.4607e-12  Tolerance :   1.0000e-09
  Last MAX-Density change    ...    1.4217e-06  Tolerance :   1.0000e-08
  Last RMS-Density change    ...    5.8922e-08  Tolerance :   1.0000e-09
  Last DIIS Error            ...    4.8046e-08  Tolerance :   1.0000e-08

             **** THE GBW FILE WAS UPDATED (orca0.gbw) ****
             **** DENSITY FILE WAS UPDATED (orca0.scfp) ****
             **** ENERGY FILE WAS UPDATED (orca0.en.tmp) ****
             **** THE GBW FILE WAS UPDATED (orca0.gbw) ****
             **** DENSITY FILE WAS UPDATED (orca0.scfp) ****
----------------
ORBITAL ENERGIES
----------------
                 SPIN UP ORBITALS
  NO   OCC          E(Eh)            E(eV) 
   0   1.0000     -19.167320      -521.5693 
   1   1.0000     -10.231277      -278.4072 
   2   1.0000      -0.996345       -27.1119 
   3   1.0000      -0.662409       -18.0251 
   4   1.0000      -0.483753       -13.1636 
   5   1.0000      -0.455268       -12.3885 
   6   1.0000      -0.420761       -11.4495 
   7   1.0000      -0.334565        -9.1040 
   8   1.0000      -0.278713        -7.5842 
   9   0.0000       0.067390         1.8338 
  10   0.0000       0.122855         3.3431 
  11   0.0000       0.128405         3.4941 
  12   0.0000       0.148083         4.0295 
  13   0.0000       0.443187        12.0597 
  14   0.0000       0.463160        12.6032 
  15   0.0000       0.481151        13.0928 
  16   0.0000       0.648525        17.6473 
  17   0.0000       0.650218        17.6933 
  18   0.0000       0.665797        18.1173 
  19   0.0000       0.667237        18.1564 
  20   0.0000       0.927003        25.2250 
  21   0.0000       0.951256        25.8850 
  22   0.0000       0.996341        27.1118 
  23   0.0000       1.393599        37.9217 
  24   0.0000       1.602541        43.6074 
  25   0.0000       1.614335        43.9283 
  26   0.0000       2.051630        55.8277 
  27   0.0000       2.056864        55.9701 
  28   0.0000       2.065110        56.1945 
  29   0.0000       2.600745        70.7699 
  30   0.0000       2.601739        70.7969 
  31   0.0000       2.849849        77.5483 
  32   0.0000       2.898311        78.8670 
  33   0.0000       3.317252        90.2670 

                 SPIN DOWN ORBITALS
  NO   OCC          E(Eh)            E(eV) 
   0   1.0000     -19.143137      -520.9112 
   1   1.0000     -10.232027      -278.4276 
   2   1.0000      -0.942589       -25.6492 
   3   1.0000      -0.645034       -17.5523 
   4   1.0000      -0.452251       -12.3064 
   5   1.0000      -0.445170       -12.1137 
   6   1.0000      -0.399160       -10.8617 
   7   1.0000      -0.256650        -6.9838 
   8   0.0000      -0.127240        -3.4624 
   9   0.0000       0.069120         1.8808 
  10   0.0000       0.128166         3.4876 
  11   0.0000       0.129387         3.5208 
  12   0.0000       0.157952         4.2981 
  13   0.0000       0.452852        12.3227 
  14   0.0000       0.469436        12.7740 
  15   0.0000       0.487060        13.2536 
  16   0.0000       0.650381        17.6978 
  17   0.0000       0.660565        17.9749 
  18   0.0000       0.669295        18.2124 
  19   0.0000       0.670261        18.2387 
  20   0.0000       0.944850        25.7107 
  21   0.0000       1.010837        27.5063 
  22   0.0000       1.038238        28.2519 
  23   0.0000       1.417536        38.5731 
  24   0.0000       1.611119        43.8408 
  25   0.0000       1.616115        43.9767 
  26   0.0000       2.052731        55.8576 
  27   0.0000       2.064118        56.1675 
  28   0.0000       2.072400        56.3929 
  29   0.0000       2.675847        72.8135 
  30   0.0000       2.683857        73.0315 
  31   0.0000       2.909715        79.1774 
  32   0.0000       2.918290        79.4107 
  33   0.0000       3.346334        91.0584 

                    ********************************
                    * MULLIKEN POPULATION ANALYSIS *
                    ********************************

------------------------------------------
FOD BASED MULLIKEN REDUCED ORBITAL CHARGES
------------------------------------------
  0 C s       :     0.000000  s :     0.000000
      pz      :     0.000000  p :     0.000002
      px      :     0.000000
      py      :     0.000001
      dz2     :     0.000000  d :     0.000001
      dxz     :     0.000000
      dyz     :     0.000000
      dx2y2   :     0.000000
      dxy     :     0.000000
  1 O s       :    -0.000000  s :    -0.000000
      pz      :     0.000031  p :     0.000061
      px      :     0.000005
      py      :     0.000025
      dz2     :    -0.000000  d :     0.000000
      dxz     :     0.000000
      dyz     :     0.000000
      dx2y2   :    -0.000000
      dxy     :    -0.000000
  2 H s       :     0.000003  s :     0.000003
  3 H s       :     0.000004  s :     0.000004
  4 H s       :     0.000003  s :     0.000003


                     *******************************
                     * LOEWDIN POPULATION ANALYSIS *
                     *******************************

-------------------------------------------
LOEWDIN ATOMIC CHARGES AND SPIN POPULATIONS
-------------------------------------------
   0 C :   -0.216536   -0.018375
   1 O :   -0.134383    0.920231
   2 H :    0.137118    0.062921
   3 H :    0.097719    0.002081
   4 H :    0.116083    0.033142

----------------------------------------------------
LOEWDIN REDUCED ORBITAL CHARGES AND SPIN POPULATIONS
----------------------------------------------------
CHARGE
  0 C s       :     2.973309  s :     2.973309
      pz      :     1.108750  p :     3.117567
      px      :     0.920648
      py      :     1.088170
      dz2     :     0.023318  d :     0.125660
      dxz     :     0.019764
      dyz     :     0.009118
      dx2y2   :     0.041323
      dxy     :     0.032138
  1 O s       :     3.697558  s :     3.697558
      pz      :     1.055705  p :     4.419692
      px      :     1.520836
      py      :     1.843150
      dz2     :     0.002936  d :     0.017133
      dxz     :     0.002824
      dyz     :     0.000516
      dx2y2   :     0.005141
      dxy     :     0.005716
  2 H s       :     0.862882  s :     0.862882
  3 H s       :     0.902281  s :     0.902281
  4 H s       :     0.883917  s :     0.883917

SPIN
  0 C s       :    -0.006874  s :    -0.006874
      pz      :    -0.003692  p :    -0.030373
      px      :    -0.020396
      py      :    -0.006285
      dz2     :     0.003278  d :     0.018873
      dxz     :     0.014742
      dyz     :     0.000684
      dx2y2   :    -0.000140
      dxy     :     0.000308
  1 O s       :     0.011005  s :     0.011005
      pz      :     0.884605  p :     0.909292
      px      :     0.019115
      py      :     0.005572
      dz2     :     0.000184  d :    -0.000066
      dxz     :    -0.000027
      dyz     :    -0.000003
      dx2y2   :    -0.000098
      dxy     :    -0.000121
  2 H s       :     0.062921  s :     0.062921
  3 H s       :     0.002081  s :     0.002081
  4 H s       :     0.033142  s :     0.033142


                      *****************************
                      * MAYER POPULATION ANALYSIS *
                      *****************************

  NA   - Mulliken gross atomic population
  ZA   - Total nuclear charge
  QA   - Mulliken gross atomic charge
  VA   - Mayer's total valence
  BVA  - Mayer's bonded valence
  FA   - Mayer's free valence

  ATOM       NA         ZA         QA         VA         BVA        FA
  0 C      6.0991     6.0000    -0.0991     3.9287     3.9260     0.0027
  1 O      8.2486     8.0000    -0.2486     2.0218     1.2048     0.8170
  2 H      0.8669     1.0000     0.1331     0.9556     0.9491     0.0064
  3 H      0.8995     1.0000     0.1005     0.9458     0.9458     0.0000
  4 H      0.8860     1.0000     0.1140     0.9484     0.9466     0.0018

  Mayer bond orders larger than 0.100000
B(  0-C ,  1-O ) :   1.1164 B(  0-C ,  2-H ) :   0.9222 B(  0-C ,  3-H ) :   0.9517 
B(  0-C ,  4-H ) :   0.9357 

-------
TIMINGS
-------

Total SCF time: 0 days 0 hours 25 min 58 sec 

Total time                  ....    1558.796 sec
Sum of individual times     ....    1245.995 sec  ( 79.9%)

Fock matrix formation       ....    1066.227 sec  ( 68.4%)
  XC integration            ....     590.548 sec  ( 55.4% of F)
    Basis function eval.    ....       0.751 sec  (  0.1% of XC)
    Density eval.           ....       0.757 sec  (  0.1% of XC)
    XC-Functional eval.     ....       0.986 sec  (  0.2% of XC)
    XC-Potential eval.      ....       0.532 sec  (  0.1% of XC)
Diagonalization             ....       2.825 sec  (  0.2%)
Density matrix formation    ....      91.772 sec  (  5.9%)
Population analysis         ....      12.300 sec  (  0.8%)
Initial guess               ....       0.923 sec  (  0.1%)
Orbital Transformation      ....       0.000 sec  (  0.0%)
Orbital Orthonormalization  ....       0.000 sec  (  0.0%)
DIIS solution               ....      63.395 sec  (  4.1%)
Grid generation             ....       8.553 sec  (  0.5%)


-------------------------------------------------------------------------------
                          DFT DISPERSION CORRECTION                            
                                                                               
                              DFTD3 V3.1  Rev 1                                
                          USING Becke-Johnson damping                          
-------------------------------------------------------------------------------
The B3LYP functional is recognized
Active option DFTDOPT                   ...         4   

molecular C6(AA) [au] = 171.034283 


            DFT-D V3
 parameters
 s6 scaling factor         :     1.0000 
 a1 scaling factor         :     0.3981 
 s8 scaling factor         :     1.9889 
 a2 scaling factor         :     4.4211 
 ad hoc parameters k1-k3   :    16.0000     1.3333    -4.0000 

 Edisp/kcal,au: -1.522186432655  -0.002425758229 
 E6   /kcal   :  -0.780857383 
 E8   /kcal   :  -0.741329050 
 % E8         :  48.701593578 

-------------------------   ----------------
Dispersion correction           -0.002425758
-------------------------   ----------------


-------------------------   --------------------
FINAL SINGLE POINT ENERGY      -114.892644984373
-------------------------   --------------------

------------------------------------------------------------------------------
                         ORCA SCF GRADIENT CALCULATION
------------------------------------------------------------------------------

Gradient of the Kohn-Sham DFT energy:
Kohn-Sham wavefunction type      ... UKS
Hartree-Fock exchange scaling    ...    0.200
Number of operators              ...    2
Number of atoms                  ...    5
Basis set dimensions             ...   34
Integral neglect threshold       ... 1.0e-12
Integral primitive cutoff        ... 1.0e-14

Nuclear repulsion gradient       ... done
One Electron Gradient            ... done
Pre-screening matrix             ... done
Starting the two electron gradient:
Two electron gradient done
Exchange-correlation gradient    ... done
Dispersion correction            ... done

------------------
CARTESIAN GRADIENT
------------------

   1   C   :   -0.036457557   -0.002535576    0.019575304
   2   O   :    0.014951831   -0.000566432   -0.005051070
   3   H   :    0.004583267   -0.001371888   -0.008216020
   4   H   :    0.007989974   -0.002444275   -0.007681025
   5   H   :    0.008932485    0.006918171    0.001372811

Difference to translation invariance:
           :   -0.0000000000    0.0000000000    0.0000000000

Norm of the cartesian gradient     ...    0.0481342418
RMS gradient                       ...    0.0124282078
MAX gradient                       ...    0.0364575568

-------
TIMINGS
-------

Total SCF gradient time            ...        0.950 sec

One electron gradient       ....       0.003 sec  (  0.3%)
Prescreening matrices       ....       0.007 sec  (  0.7%)
Two electron gradient       ....       0.065 sec  (  6.9%)
XC gradient                 ....       0.326 sec  ( 34.3%)
------------------------------------------------------------------------------
                         ORCA GEOMETRY RELAXATION STEP
------------------------------------------------------------------------------

Reading the OPT-File                    .... done
Getting information on internals        .... done
Copying old internal coords+grads       .... done
Making the new internal coordinates     .... (new redundants).... done
Validating the new internal coordinates .... (new redundants).... done
Calculating the B-matrix                .... done
Calculating the G,G- and P matrices     .... done
Transforming gradient to internals      .... done
Projecting the internal gradient        .... done
Number of atoms                         ....   5
Number of internal coordinates          ....  10
Current Energy                          ....  -114.892644984 Eh
Current gradient norm                   ....     0.048134242 Eh/bohr
Maximum allowed component of the step   ....  0.300
Current trust radius                    ....  0.300
Evaluating the initial hessian          ....  (Almloef) done
Projecting the Hessian                  .... done
Forming the augmented Hessian           .... done
Diagonalizing the augmented Hessian     .... done
Last element of RFO vector              ....  0.996488454
Lowest eigenvalues of augmented Hessian:
 -0.002444597  0.286306638  0.287594936  0.315011883  0.332293885
Length of the computed step             ....  0.084025351
The final length of the internal step   ....  0.084025351
Converting the step to cartesian space:
 Initial RMS(Int)=    0.0265711490
Transforming coordinates:
 Iter   0:  RMS(Cart)=    0.0182471081 RMS(Int)=    0.0264760625
 Iter   1:  RMS(Cart)=    0.0004969624 RMS(Int)=    0.0006298526
 Iter   2:  RMS(Cart)=    0.0000109737 RMS(Int)=    0.0000128490
 Iter   3:  RMS(Cart)=    0.0000002190 RMS(Int)=    0.0000002985
 Iter   4:  RMS(Cart)=    0.0000000059 RMS(Int)=    0.0000000059
done
Storing new coordinates                 .... done

                                .--------------------.
          ----------------------|Geometry convergence|-------------------------
          Item                value                   Tolerance       Converged
          ---------------------------------------------------------------------
          RMS gradient        0.0093804525            0.0001000000      NO
          MAX gradient        0.0167323373            0.0003000000      NO
          RMS step            0.0265711490            0.0020000000      NO
          MAX step            0.0503148278            0.0040000000      NO
          ........................................................
          Max(Bonds)      0.0149      Max(Angles)    2.88
          Max(Dihed)        0.00      Max(Improp)    0.00
          ---------------------------------------------------------------------

The optimization has not yet converged - more geometry cycles are needed


    ---------------------------------------------------------------------------
                         Redundant Internal Coordinates
                            (Angstroem and degrees)

        Definition                    Value    dE/dq     Step     New-Value
    ----------------------------------------------------------------------------
     1. B(O   1,C   0)                1.3984  0.014229 -0.0138    1.3846   
     2. B(H   2,C   0)                1.0981 -0.008959  0.0135    1.1115   
     3. B(H   3,C   0)                1.1119  0.000261 -0.0004    1.1115   
     4. B(H   4,C   0)                1.0971 -0.009940  0.0149    1.1120   
     5. A(O   1,C   0,H   3)          108.95 -0.016732    2.88    111.83   
     6. A(H   2,C   0,H   3)          113.16  0.010959   -2.09    111.07   
     7. A(O   1,C   0,H   4)          109.86 -0.002030    0.40    110.26   
     8. A(H   2,C   0,H   4)          109.16  0.008260   -1.55    107.62   
     9. A(H   3,C   0,H   4)          108.89 -0.003912    0.86    109.76   
    10. A(O   1,C   0,H   2)          106.77  0.003254   -0.47    106.30   
    ----------------------------------------------------------------------------

Time needed for optimization step       :     4.35 sec

         *************************************************************
         *                GEOMETRY OPTIMIZATION CYCLE   2            *
         *************************************************************
---------------------------------
CARTESIAN COORDINATES (ANGSTROEM)
---------------------------------
  C     -0.353158    0.006191   -0.011557
  O      0.894306   -0.586162   -0.112225
  H     -0.669873   -0.112573    1.047244
  H     -0.325749    1.078652   -0.302122
  H     -1.088692   -0.535831   -0.645314

----------------------------
CARTESIAN COORDINATES (A.U.)
----------------------------
  NO LB      ZA    FRAG     MASS         X           Y           Z
   0 C     6.0000    0    12.011   -0.667371    0.011700   -0.021839
   1 O     8.0000    0    15.999    1.689993   -1.107686   -0.212074
   2 H     1.0000    0     1.008   -1.265877   -0.212733    1.979004
   3 H     1.0000    0     1.008   -0.615577    2.038357   -0.570928
   4 H     1.0000    0     1.008   -2.057329   -1.012573   -1.219466

--------------------------------
INTERNAL COORDINATES (ANGSTROEM)
--------------------------------
 C      0   0   0     0.000000000000     0.00000000     0.00000000
 O      1   0   0     1.384623293090     0.00000000     0.00000000
 H      1   2   0     1.111518314557   106.27565026     0.00000000
 H      1   2   3     1.111463560651   111.81264311   121.32221212
 H      1   2   3     1.111955821062   110.24160431   243.68107376

---------------------------
INTERNAL COORDINATES (A.U.)
---------------------------
 C      0   0   0     0.000000000000     0.00000000     0.00000000
 O      1   0   0     2.616558822589     0.00000000     0.00000000
 H      1   2   0     2.100465207350   106.27565026     0.00000000
 H      1   2   3     2.100361737463   111.81264311   121.32221212
 H      1   2   3     2.101291974827   110.24160431   243.68107376


Diagonalization of the overlap matrix:
Smallest eigenvalue                        ... 1.245e-02
Time for diagonalization                   ...    0.000 sec
Threshold for overlap eigenvalues          ... 1.000e-08
Number of eigenvalues below threshold      ... 0
Time for construction of square roots      ...    1.572 sec
Total time needed                          ...    1.572 sec

-------------------
DFT GRID GENERATION
-------------------

General Integration Accuracy     IntAcc      ...  4.340
Radial Grid Type                 RadialGrid  ... Gauss-Chebyshev
Angular Grid (max. acc.)         AngularGrid ... Lebedev-110
Angular grid pruning method      GridPruning ... 3 (G Style)
Weight generation scheme         WeightScheme... Becke
Basis function cutoff            BFCut       ...    1.0000e-12
Integration weight cutoff        WCut        ...    1.0000e-14
Grids for H and He will be reduced by one unit

# of grid points (after initial pruning)     ...   5754 (   0.0 sec)
# of grid points (after weights+screening)   ...   5655 (   0.0 sec)
nearest neighbour list constructed           ...    0.0 sec
Grid point re-assignment to atoms done       ...    0.0 sec
Grid point division into batches done        ...    0.0 sec
Reduced shell lists constructed in    0.0 sec

Total number of grid points                  ...     5655
Total number of batches                      ...       90
Average number of points per batch           ...       62
Average number of grid points per atom       ...     1131
Average number of shells per batch           ...    16.15 (89.74%)
Average number of basis functions per batch  ...    30.77 (90.50%)
Average number of large shells per batch     ...    15.10 (93.47%)
Average number of large basis fcns per batch ...    28.46 (92.50%)
Maximum spatial batch extension              ...  25.63, 22.15, 21.59 au
Average spatial batch extension              ...   5.01,  4.92,  4.66 au

Time for grid setup =    1.496 sec

--------------
SCF ITERATIONS
--------------
ITER       Energy         Delta-E        Max-DP      RMS-DP      [F,P]     Damp
               ***  Starting incremental Fock matrix formation  ***
  0   -114.8916331242   0.000000000000 0.00115653  0.00014670  0.0056912 0.7000
  1   -114.8917586099  -0.000125485694 0.00111220  0.00013852  0.0041599 0.7000
                               ***Turning on DIIS***
  2   -114.8918570742  -0.000098464279 0.00295918  0.00036883  0.0033032 0.0000
  3   -114.8921102516  -0.000253177433 0.00117418  0.00010765  0.0009867 0.0000
  4   -114.8921211984  -0.000010946740 0.00045401  0.00003655  0.0011890 0.0000
  5   -114.8921248321  -0.000003633694 0.00041775  0.00002513  0.0002664 0.0000
  6   -114.8921255575  -0.000000725434 0.00015733  0.00000971  0.0001725 0.0000
  7   -114.8921257179  -0.000000160346 0.00016115  0.00000741  0.0000679 0.0000
  8   -114.8921257816  -0.000000063726 0.00007795  0.00000422  0.0000276 0.0000
  9   -114.8921258026  -0.000000021055 0.00011198  0.00000491  0.0000271 0.0000
 10   -114.8921258250  -0.000000022326 0.00011162  0.00000469  0.0000275 0.0000
 11   -114.8921258457  -0.000000020759 0.00023437  0.00000991  0.0000268 0.0000
 12   -114.8921258878  -0.000000042057 0.00044869  0.00001888  0.0000257 0.0000
 13   -114.8921259611  -0.000000073368 0.00087237  0.00003670  0.0000229 0.0000
 14   -114.8921260785  -0.000000117344 0.00146739  0.00006162  0.0000176 0.0000
 15   -114.8921262008  -0.000000122293 0.00088445  0.00003710  0.0000082 0.0000
 16   -114.8921262293  -0.000000028518 0.00021439  0.00000897  0.0000045 0.0000
 17   -114.8921262311  -0.000000001843 0.00009125  0.00000381  0.0000009 0.0000
 18   -114.8921262313  -0.000000000177 0.00000293  0.00000012  0.0000002 0.0000
                 **** Energy Check signals convergence ****

 Fermi smearing  (ALPHA): E(HOMO(Eh)) = -0.331268 MUE = -0.107021 gap=   9.407 eV
 Fermi smearing   (BETA): E(HOMO(Eh)) = -0.258035 MUE = -0.193144 gap=   3.532 eV

N_FOD(alpha) =  0.000000
 N_FOD(beta) =  0.000071
       N_FOD =  0.000071

               *****************************************************
               *                     SUCCESS                       *
               *           SCF CONVERGED AFTER  19 CYCLES          *
               *****************************************************

Setting up the final grid:

General Integration Accuracy     IntAcc      ...  4.670
Radial Grid Type                 RadialGrid  ... Gauss-Chebyshev
Angular Grid (max. acc.)         AngularGrid ... Lebedev-302
Angular grid pruning method      GridPruning ... 3 (G Style)
Weight generation scheme         WeightScheme... Becke
Basis function cutoff            BFCut       ...    1.0000e-12
Integration weight cutoff        WCut        ...    1.0000e-14
Grids for H and He will be reduced by one unit

# of grid points (after initial pruning)     ...  22606 (   0.0 sec)
# of grid points (after weights+screening)   ...  22057 (   0.0 sec)
nearest neighbour list constructed           ...    0.0 sec
Grid point re-assignment to atoms done       ...    0.0 sec
Grid point division into batches done        ...    0.1 sec
Reduced shell lists constructed in    0.1 sec

Total number of grid points                  ...    22057
Total number of batches                      ...      349
Average number of points per batch           ...       63
Average number of grid points per atom       ...     4411
Average number of shells per batch           ...    15.00 (83.33%)
Average number of basis functions per batch  ...    28.55 (83.98%)
Average number of large shells per batch     ...    13.91 (92.74%)
Average number of large basis fcns per batch ...    26.25 (91.93%)
Maximum spatial batch extension              ...  20.64, 20.64, 20.64 au
Average spatial batch extension              ...   3.16,  3.18,  3.22 au

Final grid set up in    3.5 sec
Final integration                            ... done (   7.0 sec)
Change in XC energy                          ...     0.000046588
Integrated number of electrons               ...    16.999984806
Previous integrated no of electrons          ...    17.001206801
Total Energy       :         -114.89207964 Eh           -3126.37243 eV
  Last Energy change         ...   -2.1316e-13  Tolerance :   1.0000e-09
  Last MAX-Density change    ...    1.7924e-06  Tolerance :   1.0000e-08
             **** THE GBW FILE WAS UPDATED (orca0.gbw) ****
             **** DENSITY FILE WAS UPDATED (orca0.scfp) ****
             **** ENERGY FILE WAS UPDATED (orca0.en.tmp) ****
             **** THE GBW FILE WAS UPDATED (orca0.gbw) ****
             **** DENSITY FILE WAS UPDATED (orca0.scfp) ****
Total SCF time: 0 days 0 hours 8 min 59 sec 


-------------------------------------------------------------------------------
                          DFT DISPERSION CORRECTION                            
                                                                               
                              DFTD3 V3.1  Rev 1                                
                          USING Becke-Johnson damping                          
-------------------------------------------------------------------------------
-------------------------   ----------------
Dispersion correction           -0.002425270
-------------------------   ----------------


-------------------------   --------------------
FINAL SINGLE POINT ENERGY      -114.894504913129
-------------------------   --------------------

------------------------------------------------------------------------------
                         ORCA SCF GRADIENT CALCULATION
------------------------------------------------------------------------------

Gradient of the Kohn-Sham DFT energy:
Kohn-Sham wavefunction type      ... UKS
Hartree-Fock exchange scaling    ...    0.200
Number of operators              ...    2
Number of atoms                  ...    5
Basis set dimensions             ...   34
Integral neglect threshold       ... 1.0e-12
Integral primitive cutoff        ... 1.0e-14

Nuclear repulsion gradient       ... done
One Electron Gradient            ... done
Pre-screening matrix             ... done
Starting the two electron gradient:
Two electron gradient done
Exchange-correlation gradient    ... done
Dispersion correction            ... done

------------------
CARTESIAN GRADIENT
------------------

   1   C   :   -0.020553505    0.004578137    0.011578481
   2   O   :    0.011039276   -0.002764321   -0.003133863
   3   H   :    0.002379033   -0.001253493   -0.001730932
   4   H   :    0.004164380   -0.001693799   -0.004272827
   5   H   :    0.002970816    0.001133475   -0.002440858

Difference to translation invariance:
           :    0.0000000000    0.0000000000    0.0000000000

Norm of the cartesian gradient     ...    0.0279563738
RMS gradient                       ...    0.0072183047
MAX gradient                       ...    0.0205535050

-------
TIMINGS
-------

Total SCF gradient time            ...        0.631 sec

One electron gradient       ....       0.003 sec  (  0.4%)
Prescreening matrices       ....       0.007 sec  (  1.1%)
Two electron gradient       ....       0.073 sec  ( 11.6%)
XC gradient                 ....       0.331 sec  ( 52.4%)
------------------------------------------------------------------------------
                         ORCA GEOMETRY RELAXATION STEP
------------------------------------------------------------------------------

Reading the OPT-File                    .... done
Getting information on internals        .... done
Copying old internal coords+grads       .... done
Making the new internal coordinates     .... (new redundants).... done
Validating the new internal coordinates .... (new redundants).... done
Calculating the B-matrix                .... done
Calculating the G,G- and P matrices     .... done
Transforming gradient to internals      .... done
Projecting the internal gradient        .... done
Number of atoms                         ....   5
Number of internal coordinates          ....  10
Current Energy                          ....  -114.894504913 Eh
Current gradient norm                   ....     0.027956374 Eh/bohr
Maximum allowed component of the step   ....  0.300
Current trust radius                    ....  0.300
Updating the Hessian (BFGS)             .... done
Forming the augmented Hessian           .... done
Diagonalizing the augmented Hessian     .... done
Last element of RFO vector              ....  0.993865656
Lowest eigenvalues of augmented Hessian:
 -0.001852360  0.144359184  0.287316846  0.296434773  0.331940237
Length of the computed step             ....  0.111276719
The final length of the internal step   ....  0.111276719
Converting the step to cartesian space:
 Initial RMS(Int)=    0.0351887882
Transforming coordinates:
 Iter   0:  RMS(Cart)=    0.0242653866 RMS(Int)=    0.0348749431
 Iter   1:  RMS(Cart)=    0.0009186759 RMS(Int)=    0.0011848104
 Iter   2:  RMS(Cart)=    0.0000225701 RMS(Int)=    0.0000293700
 Iter   3:  RMS(Cart)=    0.0000006451 RMS(Int)=    0.0000008237
 Iter   4:  RMS(Cart)=    0.0000000294 RMS(Int)=    0.0000000361
done
Storing new coordinates                 .... done

                                .--------------------.
          ----------------------|Geometry convergence|-------------------------
          Item                value                   Tolerance       Converged
          ---------------------------------------------------------------------
          Energy change      -0.0018599288            0.0000050000      NO
          RMS gradient        0.0054677853            0.0001000000      NO
          MAX gradient        0.0113563980            0.0003000000      NO
          RMS step            0.0351887882            0.0020000000      NO
          MAX step            0.0622855622            0.0040000000      NO
          ........................................................
          Max(Bonds)      0.0256      Max(Angles)    3.57
          Max(Dihed)        0.00      Max(Improp)    0.00
          ---------------------------------------------------------------------

The optimization has not yet converged - more geometry cycles are needed


    ---------------------------------------------------------------------------
                         Redundant Internal Coordinates
                            (Angstroem and degrees)

        Definition                    Value    dE/dq     Step     New-Value
    ----------------------------------------------------------------------------
     1. B(O   1,C   0)                1.3846  0.011356 -0.0256    1.3591   
     2. B(H   2,C   0)                1.1115 -0.002194  0.0095    1.1210   
     3. B(H   3,C   0)                1.1115 -0.000414  0.0013    1.1127   
     4. B(H   4,C   0)                1.1120 -0.001126  0.0064    1.1184   
     5. A(O   1,C   0,H   3)          111.81 -0.008290    3.57    115.38   
     6. A(H   2,C   0,H   3)          111.05  0.006899   -3.10    107.95   
     7. A(O   1,C   0,H   4)          110.24 -0.003111    1.26    111.51   
     8. A(H   2,C   0,H   4)          107.60  0.005615   -2.45    105.15   
     9. A(H   3,C   0,H   4)          109.73 -0.001989    1.14    110.87   
    10. A(O   1,C   0,H   2)          106.28  0.001508   -0.50    105.78   
    ----------------------------------------------------------------------------

Time needed for optimization step       :     3.99 sec

         *************************************************************
         *                GEOMETRY OPTIMIZATION CYCLE   3            *
         *************************************************************
---------------------------------
CARTESIAN COORDINATES (ANGSTROEM)
---------------------------------
  C     -0.330816    0.006097   -0.033522
  O      0.885741   -0.595923   -0.101449
  H     -0.665077   -0.104841    1.030702
  H     -0.339180    1.090544   -0.282700
  H     -1.093834   -0.545601   -0.637004

----------------------------
CARTESIAN COORDINATES (A.U.)
----------------------------
  NO LB      ZA    FRAG     MASS         X           Y           Z
   0 C     6.0000    0    12.011   -0.625152    0.011522   -0.063348
   1 O     8.0000    0    15.999    1.673808   -1.126132   -0.191711
   2 H     1.0000    0     1.008   -1.256814   -0.198121    1.947745
   3 H     1.0000    0     1.008   -0.640957    2.060830   -0.534226
   4 H     1.0000    0     1.008   -2.067046   -1.031036   -1.203763

--------------------------------
INTERNAL COORDINATES (ANGSTROEM)
--------------------------------
 C      0   0   0     0.000000000000     0.00000000     0.00000000
 O      1   0   0     1.359063833106     0.00000000     0.00000000
 H      1   2   0     1.120986915974   105.69580444     0.00000000
 H      1   2   3     1.112737755837   115.29260002   119.02953826
 H      1   2   3     1.118372333050   111.42177658   246.39748110

---------------------------
INTERNAL COORDINATES (A.U.)
---------------------------
 C      0   0   0     0.000000000000     0.00000000     0.00000000
 O      1   0   0     2.568258443087     0.00000000     0.00000000
 H      1   2   0     2.118358270900   105.69580444     0.00000000
 H      1   2   3     2.102769617405   115.29260002   119.02953826
 H      1   2   3     2.113417425218   111.42177658   246.39748110


Diagonalization of the overlap matrix:
Smallest eigenvalue                        ... 1.259e-02
Time for diagonalization                   ...    0.000 sec
Threshold for overlap eigenvalues          ... 1.000e-08
Number of eigenvalues below threshold      ... 0
Time for construction of square roots      ...    0.695 sec
Total time needed                          ...    0.695 sec

-------------------
DFT GRID GENERATION
-------------------

General Integration Accuracy     IntAcc      ...  4.340
Radial Grid Type                 RadialGrid  ... Gauss-Chebyshev
Angular Grid (max. acc.)         AngularGrid ... Lebedev-110
Angular grid pruning method      GridPruning ... 3 (G Style)
Weight generation scheme         WeightScheme... Becke
Basis function cutoff            BFCut       ...    1.0000e-12
Integration weight cutoff        WCut        ...    1.0000e-14
Grids for H and He will be reduced by one unit

# of grid points (after initial pruning)     ...   5754 (   0.0 sec)
# of grid points (after weights+screening)   ...   5657 (   0.0 sec)
nearest neighbour list constructed           ...    0.0 sec
Grid point re-assignment to atoms done       ...    0.0 sec
Grid point division into batches done        ...    0.0 sec
Reduced shell lists constructed in    0.0 sec

Total number of grid points                  ...     5657
Total number of batches                      ...       91
Average number of points per batch           ...       62
Average number of grid points per atom       ...     1131
Average number of shells per batch           ...    16.12 (89.55%)
Average number of basis functions per batch  ...    30.60 (89.99%)
Average number of large shells per batch     ...    15.08 (93.53%)
Average number of large basis fcns per batch ...    28.51 (93.18%)
Maximum spatial batch extension              ...  25.60, 22.14, 21.59 au
Average spatial batch extension              ...   5.05,  5.02,  4.72 au

Time for grid setup =    0.137 sec

--------------
SCF ITERATIONS
--------------
ITER       Energy         Delta-E        Max-DP      RMS-DP      [F,P]     Damp
               ***  Starting incremental Fock matrix formation  ***
  0   -114.8920933710   0.000000000000 0.00142525  0.00018404  0.0084078 0.7000
  1   -114.8923457309  -0.000252359893 0.00134033  0.00017893  0.0059802 0.7000
                               ***Turning on DIIS***
  2   -114.8925483737  -0.000202642890 0.00350696  0.00049069  0.0047309 0.0000
  3   -114.8930815509  -0.000533177193 0.00115727  0.00010403  0.0015669 0.0000
  4   -114.8931037727  -0.000022221806 0.00073661  0.00005452  0.0010860 0.0000
  5   -114.8931125891  -0.000008816307 0.00146684  0.00007960  0.0006750 0.0000
  6   -114.8931201915  -0.000007602485 0.00079633  0.00004288  0.0003124 0.0000
  7   -114.8931223444  -0.000002152905 0.00088083  0.00004161  0.0002186 0.0000
  8   -114.8931240714  -0.000001726976 0.00118384  0.00005234  0.0002304 0.0000
  9   -114.8931260855  -0.000002014035 0.00182661  0.00007946  0.0002237 0.0000
 10   -114.8931288694  -0.000002783937 0.00317730  0.00013712  0.0002043 0.0000
 11   -114.8931329176  -0.000004048238 0.00597539  0.00025768  0.0001641 0.0000
 12   -114.8931379188  -0.000005001143 0.00391661  0.00016812  0.0000881 0.0000
 13   -114.8931393585  -0.000001439765 0.00146047  0.00006254  0.0000316 0.0000
 14   -114.8931395269  -0.000000168330 0.00040398  0.00001727  0.0000157 0.0000
 15   -114.8931395377  -0.000000010860 0.00007570  0.00000322  0.0000116 0.0000
 16   -114.8931395382  -0.000000000436 0.00001110  0.00000046  0.0000008 0.0000
                 **** Energy Check signals convergence ****

 Fermi smearing  (ALPHA): E(HOMO(Eh)) = -0.325993 MUE = -0.108009 gap=   9.394 eV
 Fermi smearing   (BETA): E(HOMO(Eh)) = -0.259264 MUE = -0.194292 gap=   3.536 eV

N_FOD(alpha) =  0.000000
 N_FOD(beta) =  0.000070
       N_FOD =  0.000070

               *****************************************************
               *                     SUCCESS                       *
               *           SCF CONVERGED AFTER  17 CYCLES          *
               *****************************************************

Setting up the final grid:

General Integration Accuracy     IntAcc      ...  4.670
Radial Grid Type                 RadialGrid  ... Gauss-Chebyshev
Angular Grid (max. acc.)         AngularGrid ... Lebedev-302
Angular grid pruning method      GridPruning ... 3 (G Style)
Weight generation scheme         WeightScheme... Becke
Basis function cutoff            BFCut       ...    1.0000e-12
Integration weight cutoff        WCut        ...    1.0000e-14
Grids for H and He will be reduced by one unit

# of grid points (after initial pruning)     ...  22606 (   0.0 sec)
# of grid points (after weights+screening)   ...  22063 (   0.0 sec)
nearest neighbour list constructed           ...    0.0 sec
Grid point re-assignment to atoms done       ...    0.0 sec
Grid point division into batches done        ...    0.1 sec
Reduced shell lists constructed in    0.1 sec

Total number of grid points                  ...    22063
Total number of batches                      ...      348
Average number of points per batch           ...       63
Average number of grid points per atom       ...     4413
Average number of shells per batch           ...    14.99 (83.30%)
Average number of basis functions per batch  ...    28.47 (83.73%)
Average number of large shells per batch     ...    13.92 (92.85%)
Average number of large basis fcns per batch ...    26.32 (92.45%)
Maximum spatial batch extension              ...  20.64, 20.64, 20.64 au
Average spatial batch extension              ...   3.04,  3.21,  3.14 au

Final grid set up in    1.8 sec
Final integration                            ... done (   6.1 sec)
Change in XC energy                          ...     0.000048769
Integrated number of electrons               ...    16.999990027
Previous integrated no of electrons          ...    17.001297200
Total Energy       :         -114.89309077 Eh           -3126.39994 eV
  Last Energy change         ...    4.7322e-12  Tolerance :   1.0000e-09
  Last MAX-Density change    ...    7.3004e-06  Tolerance :   1.0000e-08
             **** THE GBW FILE WAS UPDATED (orca0.gbw) ****
             **** DENSITY FILE WAS UPDATED (orca0.scfp) ****
             **** ENERGY FILE WAS UPDATED (orca0.en.tmp) ****
             **** THE GBW FILE WAS UPDATED (orca0.gbw) ****
             **** DENSITY FILE WAS UPDATED (orca0.scfp) ****
Total SCF time: 0 days 0 hours 5 min 55 sec 


-------------------------------------------------------------------------------
                          DFT DISPERSION CORRECTION                            
                                                                               
                              DFTD3 V3.1  Rev 1                                
                          USING Becke-Johnson damping                          
-------------------------------------------------------------------------------
-------------------------   ----------------
Dispersion correction           -0.002425960
-------------------------   ----------------


-------------------------   --------------------
FINAL SINGLE POINT ENERGY      -114.895516728727
-------------------------   --------------------

------------------------------------------------------------------------------
                         ORCA SCF GRADIENT CALCULATION
------------------------------------------------------------------------------

Gradient of the Kohn-Sham DFT energy:
Kohn-Sham wavefunction type      ... UKS
Hartree-Fock exchange scaling    ...    0.200
Number of operators              ...    2
Number of atoms                  ...    5
Basis set dimensions             ...   34
Integral neglect threshold       ... 1.0e-12
Integral primitive cutoff        ... 1.0e-14

Nuclear repulsion gradient       ... done
One Electron Gradient            ... done
Pre-screening matrix             ... done
Starting the two electron gradient:
Two electron gradient done
Exchange-correlation gradient    ... done
Dispersion correction            ... done

------------------
CARTESIAN GRADIENT
------------------

   1   C   :   -0.000959869    0.005839095    0.002131658
   2   O   :    0.000271594   -0.002211582   -0.000640236
   3   H   :    0.000563960   -0.000641553    0.000274271
   4   H   :   -0.000351503   -0.000832201   -0.000180484
   5   H   :    0.000475817   -0.002153760   -0.001585210

Difference to translation invariance:
           :   -0.0000000000    0.0000000000    0.0000000000

Norm of the cartesian gradient     ...    0.0073461989
RMS gradient                       ...    0.0018967804
MAX gradient                       ...    0.0058390954

-------
TIMINGS
-------

Total SCF gradient time            ...        0.707 sec

One electron gradient       ....       0.003 sec  (  0.4%)
Prescreening matrices       ....       0.007 sec  (  0.9%)
Two electron gradient       ....       0.072 sec  ( 10.2%)
XC gradient                 ....       0.327 sec  ( 46.2%)
------------------------------------------------------------------------------
                         ORCA GEOMETRY RELAXATION STEP
------------------------------------------------------------------------------

Reading the OPT-File                    .... done
Getting information on internals        .... done
Copying old internal coords+grads       .... done
Making the new internal coordinates     .... (new redundants).... done
Validating the new internal coordinates .... (new redundants).... done
Calculating the B-matrix                .... done
Calculating the G,G- and P matrices     .... done
Transforming gradient to internals      .... done
Projecting the internal gradient        .... done
Number of atoms                         ....   5
Number of internal coordinates          ....  10
Current Energy                          ....  -114.895516729 Eh
Current gradient norm                   ....     0.007346199 Eh/bohr
Maximum allowed component of the step   ....  0.300
Current trust radius                    ....  0.300
Updating the Hessian (BFGS)             .... done
Forming the augmented Hessian           .... done
Diagonalizing the augmented Hessian     .... done
Last element of RFO vector              ....  0.999809660
Lowest eigenvalues of augmented Hessian:
 -0.000087958  0.128060998  0.287526041  0.295832734  0.332009493
Length of the computed step             ....  0.019513805
The final length of the internal step   ....  0.019513805
Converting the step to cartesian space:
 Initial RMS(Int)=    0.0061708070
Transforming coordinates:
 Iter   0:  RMS(Cart)=    0.0044967052 RMS(Int)=    0.0061698169
 Iter   1:  RMS(Cart)=    0.0000351789 RMS(Int)=    0.0000410975
 Iter   2:  RMS(Cart)=    0.0000001390 RMS(Int)=    0.0000002225
 Iter   3:  RMS(Cart)=    0.0000000019 RMS(Int)=    0.0000000020
done
Storing new coordinates                 .... done

                                .--------------------.
          ----------------------|Geometry convergence|-------------------------
          Item                value                   Tolerance       Converged
          ---------------------------------------------------------------------
          Energy change      -0.0010118156            0.0000050000      NO
          RMS gradient        0.0016259027            0.0001000000      NO
          MAX gradient        0.0039319141            0.0003000000      NO
          RMS step            0.0061708070            0.0020000000      NO
          MAX step            0.0139178828            0.0040000000      NO
          ........................................................
          Max(Bonds)      0.0032      Max(Angles)    0.80
          Max(Dihed)        0.00      Max(Improp)    0.00
          ---------------------------------------------------------------------

The optimization has not yet converged - more geometry cycles are needed


    ---------------------------------------------------------------------------
                         Redundant Internal Coordinates
                            (Angstroem and degrees)

        Definition                    Value    dE/dq     Step     New-Value
    ----------------------------------------------------------------------------
     1. B(O   1,C   0)                1.3591  0.001256 -0.0032    1.3559   
     2. B(H   2,C   0)                1.1210  0.000155  0.0009    1.1219   
     3. B(H   3,C   0)                1.1127 -0.000768  0.0013    1.1141   
     4. B(H   4,C   0)                1.1184  0.001593 -0.0014    1.1169   
     5. A(O   1,C   0,H   3)          115.29  0.001622    0.03    115.33   
     6. A(H   2,C   0,H   3)          107.87  0.001518   -0.56    107.31   
     7. A(O   1,C   0,H   4)          111.42 -0.003932    0.80    112.22   
     8. A(H   2,C   0,H   4)          105.07  0.000873   -0.36    104.71   
     9. A(H   3,C   0,H   4)          110.78  0.000547   -0.00    110.78   
    10. A(O   1,C   0,H   2)          105.70 -0.000502    0.06    105.75   
    ----------------------------------------------------------------------------

Time needed for optimization step       :     2.97 sec

         *************************************************************
         *                GEOMETRY OPTIMIZATION CYCLE   4            *
         *************************************************************
---------------------------------
CARTESIAN COORDINATES (ANGSTROEM)
---------------------------------
  C     -0.328470    0.002619   -0.037190
  O      0.887657   -0.593718   -0.099383
  H     -0.665673   -0.104123    1.027520
  H     -0.338886    1.089745   -0.280546
  H     -1.097794   -0.544246   -0.634374

----------------------------
CARTESIAN COORDINATES (A.U.)
----------------------------
  NO LB      ZA    FRAG     MASS         X           Y           Z
   0 C     6.0000    0    12.011   -0.620719    0.004950   -0.070279
   1 O     8.0000    0    15.999    1.677429   -1.121965   -0.187807
   2 H     1.0000    0     1.008   -1.257939   -0.196765    1.941731
   3 H     1.0000    0     1.008   -0.640403    2.059319   -0.530154
   4 H     1.0000    0     1.008   -2.074530   -1.028475   -1.198794

--------------------------------
INTERNAL COORDINATES (ANGSTROEM)
--------------------------------
 C      0   0   0     0.000000000000     0.00000000     0.00000000
 O      1   0   0     1.355895761621     0.00000000     0.00000000
 H      1   2   0     1.121920642280   105.73930136     0.00000000
 H      1   2   3     1.114079121916   115.31130901   118.35960141
 H      1   2   3     1.116937342016   112.20480109   246.43155516

---------------------------
INTERNAL COORDINATES (A.U.)
---------------------------
 C      0   0   0     0.000000000000     0.00000000     0.00000000
 O      1   0   0     2.562271655608     0.00000000     0.00000000
 H      1   2   0     2.120122757902   105.73930136     0.00000000
 H      1   2   3     2.105304431941   115.31130901   118.35960141
 H      1   2   3     2.110705685161   112.20480109   246.43155516


Diagonalization of the overlap matrix:
Smallest eigenvalue                        ... 1.262e-02
Time for diagonalization                   ...    0.001 sec
Threshold for overlap eigenvalues          ... 1.000e-08
Number of eigenvalues below threshold      ... 0
Time for construction of square roots      ...    0.426 sec
Total time needed                          ...    0.427 sec

-------------------
DFT GRID GENERATION
-------------------

General Integration Accuracy     IntAcc      ...  4.340
Radial Grid Type                 RadialGrid  ... Gauss-Chebyshev
Angular Grid (max. acc.)         AngularGrid ... Lebedev-110
Angular grid pruning method      GridPruning ... 3 (G Style)
Weight generation scheme         WeightScheme... Becke
Basis function cutoff            BFCut       ...    1.0000e-12
Integration weight cutoff        WCut        ...    1.0000e-14
Grids for H and He will be reduced by one unit

# of grid points (after initial pruning)     ...   5754 (   0.0 sec)
# of grid points (after weights+screening)   ...   5657 (   0.0 sec)
nearest neighbour list constructed           ...    0.0 sec
Grid point re-assignment to atoms done       ...    0.0 sec
Grid point division into batches done        ...    0.0 sec
Reduced shell lists constructed in    0.0 sec

[...]
 Energy Change          TolE            ....  1.000e-09 Eh
 1-El. energy change                    ....  1.000e-06 Eh
 DIIS Error             TolErr          ....  1.000e-08


Diagonalization of the overlap matrix:
Smallest eigenvalue                        ... 1.265e-02
Time for diagonalization                   ...    0.000 sec
Threshold for overlap eigenvalues          ... 1.000e-08
Number of eigenvalues below threshold      ... 0
Time for construction of square roots      ...    1.420 sec
Total time needed                          ...    1.421 sec

---------------------
INITIAL GUESS: MOREAD
---------------------
Guess MOs are being read from file: orca0.gbw
Input Geometry matches current geometry (good)
Input basis set matches current basis set (good)
MOs were renormalized
MOs were reorthogonalized (Cholesky)
                      ------------------
                      INITIAL GUESS DONE (   0.0 sec)
                      ------------------
-------------------
DFT GRID GENERATION
-------------------

General Integration Accuracy     IntAcc      ...  4.340
Radial Grid Type                 RadialGrid  ... Gauss-Chebyshev
Angular Grid (max. acc.)         AngularGrid ... Lebedev-110
Angular grid pruning method      GridPruning ... 3 (G Style)
Weight generation scheme         WeightScheme... Becke
Basis function cutoff            BFCut       ...    1.0000e-12
Integration weight cutoff        WCut        ...    1.0000e-14
Grids for H and He will be reduced by one unit

# of grid points (after initial pruning)     ...   5754 (   0.0 sec)
# of grid points (after weights+screening)   ...   5657 (   0.0 sec)
nearest neighbour list constructed           ...    0.0 sec
Grid point re-assignment to atoms done       ...    0.0 sec
Grid point division into batches done        ...    0.0 sec
Reduced shell lists constructed in    0.0 sec

Total number of grid points                  ...     5657
Total number of batches                      ...       90
Average number of points per batch           ...       62
Average number of grid points per atom       ...     1131
Average number of shells per batch           ...    16.15 (89.74%)
Average number of basis functions per batch  ...    30.70 (90.30%)
Average number of large shells per batch     ...    15.15 (93.81%)
Average number of large basis fcns per batch ...    28.63 (93.24%)
Maximum spatial batch extension              ...  25.60, 22.19, 21.59 au
Average spatial batch extension              ...   5.01,  4.93,  4.76 au

Time for grid setup =    1.011 sec

--------------
SCF ITERATIONS
--------------
ITER       Energy         Delta-E        Max-DP      RMS-DP      [F,P]     Damp
               ***  Starting incremental Fock matrix formation  ***
  0   -114.8932953723   0.000000000000 0.00003161  0.00000267  0.0001314 0.7000
  1   -114.8932954061  -0.000000033760 0.00003154  0.00000262  0.0001040 0.7000
                               ***Turning on DIIS***
  2   -114.8932954330  -0.000000026941 0.00009518  0.00000769  0.0000783 0.0000
  3   -114.8932959429  -0.000000509815 0.00001167  0.00000107  0.0000095 0.0000
  4   -114.8932959443  -0.000000001440 0.00000476  0.00000037  0.0000049 0.0000
  5   -114.8932959445  -0.000000000171 0.00000338  0.00000022  0.0000054 0.0000
  6   -114.8932959446  -0.000000000091 0.00000487  0.00000021  0.0000017 0.0000
  7   -114.8932959446  -0.000000000051 0.00000415  0.00000018  0.0000012 0.0000
  8   -114.8932959446  -0.000000000032 0.00000307  0.00000014  0.0000010 0.0000
  9   -114.8932959447  -0.000000000022 0.00000485  0.00000023  0.0000009 0.0000
 10   -114.8932959447  -0.000000000031 0.00001248  0.00000060  0.0000008 0.0000
                 **** Energy Check signals convergence ****

 Fermi smearing  (ALPHA): E(HOMO(Eh)) = -0.325632 MUE = -0.108178 gap=   9.398 eV
 Fermi smearing   (BETA): E(HOMO(Eh)) = -0.259731 MUE = -0.194694 gap=   3.540 eV

N_FOD(alpha) =  0.000000
 N_FOD(beta) =  0.000069
       N_FOD =  0.000069

               *****************************************************
               *                     SUCCESS                       *
               *           SCF CONVERGED AFTER  11 CYCLES          *
               *****************************************************

Setting up the final grid:

General Integration Accuracy     IntAcc      ...  4.670
Radial Grid Type                 RadialGrid  ... Gauss-Chebyshev
Angular Grid (max. acc.)         AngularGrid ... Lebedev-302
Angular grid pruning method      GridPruning ... 3 (G Style)
Weight generation scheme         WeightScheme... Becke
Basis function cutoff            BFCut       ...    1.0000e-12
Integration weight cutoff        WCut        ...    1.0000e-14
Grids for H and He will be reduced by one unit

# of grid points (after initial pruning)     ...  22606 (   0.0 sec)
# of grid points (after weights+screening)   ...  22056 (   0.0 sec)
nearest neighbour list constructed           ...    0.0 sec
Grid point re-assignment to atoms done       ...    0.0 sec
Grid point division into batches done        ...    0.1 sec
Reduced shell lists constructed in    0.1 sec

Total number of grid points                  ...    22056
Total number of batches                      ...      348
Average number of points per batch           ...       63
Average number of grid points per atom       ...     4411
Average number of shells per batch           ...    15.00 (83.33%)
Average number of basis functions per batch  ...    28.50 (83.83%)
Average number of large shells per batch     ...    13.97 (93.12%)
Average number of large basis fcns per batch ...    26.46 (92.82%)
Maximum spatial batch extension              ...  20.64, 20.64, 20.64 au
Average spatial batch extension              ...   3.05,  3.18,  3.19 au

Final grid set up in    0.3 sec
Final integration                            ... done (   4.1 sec)
Change in XC energy                          ...     0.000053626
Integrated number of electrons               ...    16.999992748
Previous integrated no of electrons          ...    17.001480924

----------------
TOTAL SCF ENERGY
----------------

Total Energy       :         -114.89324232 Eh           -3126.40407 eV

Components:
Nuclear Repulsion  :           34.36787276 Eh             935.19736 eV
Electronic Energy  :         -149.26111508 Eh           -4061.60143 eV
One Electron Energy:         -224.22365825 Eh           -6101.43593 eV
Two Electron Energy:           74.96254317 Eh            2039.83450 eV

Virial components:
Potential Energy   :         -228.97981783 Eh           -6230.85761 eV
Kinetic Energy     :          114.08657551 Eh            3104.45355 eV
Virial Ratio       :            2.00707065


DFT components:
N(Alpha)           :        8.999994430633 electrons
N(Beta)            :        7.999998317138 electrons
N(Total)           :       16.999992747771 electrons
E(X)               :      -11.455582015401 Eh       
E(C)               :       -0.661990350422 Eh       
E(XC)              :      -12.117572365822 Eh       
DFET-embed. en.    :        0.000000000000 Eh       

---------------
SCF CONVERGENCE
---------------

  Last Energy change         ...   -7.0528e-11  Tolerance :   1.0000e-09
  Last MAX-Density change    ...    2.2304e-05  Tolerance :   1.0000e-08
  Last RMS-Density change    ...    1.0654e-06  Tolerance :   1.0000e-09
  Last DIIS Error            ...    6.0053e-07  Tolerance :   1.0000e-08

             **** THE GBW FILE WAS UPDATED (orca0.gbw) ****
             **** DENSITY FILE WAS UPDATED (orca0.scfp) ****
             **** ENERGY FILE WAS UPDATED (orca0.en.tmp) ****
             **** THE GBW FILE WAS UPDATED (orca0.gbw) ****
             **** DENSITY FILE WAS UPDATED (orca0.scfp) ****
----------------
ORBITAL ENERGIES
----------------
                 SPIN UP ORBITALS
  NO   OCC          E(Eh)            E(eV) 
   0   1.0000     -19.168406      -521.5988 
   1   1.0000     -10.235631      -278.5257 
   2   1.0000      -1.012198       -27.5433 
   3   1.0000      -0.660372       -17.9696 
   4   1.0000      -0.482425       -13.1275 
   5   1.0000      -0.459662       -12.5081 
   6   1.0000      -0.432542       -11.7701 
   7   1.0000      -0.325632        -8.8609 
   8   1.0000      -0.280865        -7.6427 
   9   0.0000       0.064509         1.7554 
  10   0.0000       0.115982         3.1560 
  11   0.0000       0.130673         3.5558 
  12   0.0000       0.162704         4.4274 
  13   0.0000       0.430289        11.7088 
  14   0.0000       0.473019        12.8715 
  15   0.0000       0.501110        13.6359 
  16   0.0000       0.636170        17.3111 
  17   0.0000       0.651162        17.7190 
  18   0.0000       0.658514        17.9191 
  19   0.0000       0.668521        18.1914 
  20   0.0000       0.919411        25.0185 
  21   0.0000       0.949691        25.8424 
  22   0.0000       1.015123        27.6229 
  23   0.0000       1.378850        37.5204 
  24   0.0000       1.601189        43.5706 
  25   0.0000       1.610594        43.8265 
  26   0.0000       2.014638        54.8211 
  27   0.0000       2.041725        55.5582 
  28   0.0000       2.099038        57.1177 
  29   0.0000       2.602176        70.8088 
  30   0.0000       2.606284        70.9206 
  31   0.0000       2.896472        78.8170 
  32   0.0000       2.946394        80.1754 
  33   0.0000       3.359489        91.4163 

                 SPIN DOWN ORBITALS
  NO   OCC          E(Eh)            E(eV) 
   0   1.0000     -19.144898      -520.9592 
   1   1.0000     -10.236455      -278.5481 
   2   1.0000      -0.961309       -26.1585 
   3   1.0000      -0.642348       -17.4792 
   4   1.0000      -0.453960       -12.3529 
   5   1.0000      -0.438414       -11.9299 
   6   1.0000      -0.410393       -11.1674 
   7   1.0000      -0.259731        -7.0676 
   8   0.0000      -0.129656        -3.5281 
   9   0.0000       0.067079         1.8253 
  10   0.0000       0.123603         3.3634 
  11   0.0000       0.131621         3.5816 
  12   0.0000       0.171646         4.6707 
  13   0.0000       0.443201        12.0601 
  14   0.0000       0.476803        12.9745 
  15   0.0000       0.508170        13.8280 
  16   0.0000       0.644289        17.5320 
  17   0.0000       0.653196        17.7744 
  18   0.0000       0.658968        17.9314 
  19   0.0000       0.680464        18.5164 
  20   0.0000       0.936404        25.4808 
  21   0.0000       1.028992        28.0003 
  22   0.0000       1.034523        28.1508 
  23   0.0000       1.401508        38.1370 
  24   0.0000       1.610141        43.8142 
  25   0.0000       1.613119        43.8952 
  26   0.0000       2.016695        54.8771 
  27   0.0000       2.046832        55.6971 
  28   0.0000       2.109244        57.3955 
  29   0.0000       2.673731        72.7559 
  30   0.0000       2.685288        73.0704 
  31   0.0000       2.957158        80.4683 
  32   0.0000       2.961041        80.5740 
  33   0.0000       3.387724        92.1847 

                    ********************************
                    * MULLIKEN POPULATION ANALYSIS *
                    ********************************

------------------------------------------
FOD BASED MULLIKEN REDUCED ORBITAL CHARGES
------------------------------------------
  0 C s       :     0.000000  s :     0.000000
      pz      :     0.000000  p :     0.000002
      px      :     0.000000
      py      :     0.000001
      dz2     :     0.000000  d :     0.000001
      dxz     :     0.000000
      dyz     :     0.000000
      dx2y2   :     0.000000
      dxy     :     0.000000
  1 O s       :    -0.000000  s :    -0.000000
      pz      :     0.000029  p :     0.000056
      px      :     0.000005
      py      :     0.000022
      dz2     :     0.000000  d :     0.000000
      dxz     :     0.000000
      dyz     :     0.000000
      dx2y2   :    -0.000000
      dxy     :    -0.000000
  2 H s       :     0.000004  s :     0.000004
  3 H s       :     0.000004  s :     0.000004
  4 H s       :     0.000004  s :     0.000004


                     *******************************
                     * LOEWDIN POPULATION ANALYSIS *
                     *******************************

-------------------------------------------
LOEWDIN ATOMIC CHARGES AND SPIN POPULATIONS
-------------------------------------------
   0 C :   -0.224643   -0.015182
   1 O :   -0.120240    0.883952
   2 H :    0.144284    0.095554
   3 H :    0.100703    0.018587
   4 H :    0.099896    0.017090

----------------------------------------------------
LOEWDIN REDUCED ORBITAL CHARGES AND SPIN POPULATIONS
----------------------------------------------------
CHARGE
  0 C s       :     2.966443  s :     2.966443
      pz      :     1.097785  p :     3.119535
      px      :     0.938232
      py      :     1.083517
      dz2     :     0.024050  d :     0.138665
      dxz     :     0.023111
      dyz     :     0.006521
      dx2y2   :     0.047863
      dxy     :     0.037119
  1 O s       :     3.670657  s :     3.670657
      pz      :     1.109868  p :     4.429674
      px      :     1.529322
      py      :     1.790484
      dz2     :     0.003244  d :     0.019909
      dxz     :     0.003385
      dyz     :     0.000681
      dx2y2   :     0.005888
      dxy     :     0.006712
  2 H s       :     0.855716  s :     0.855716
  3 H s       :     0.899297  s :     0.899297
  4 H s       :     0.900104  s :     0.900104

SPIN
  0 C s       :    -0.007583  s :    -0.007583
      pz      :    -0.005641  p :    -0.030457
      px      :    -0.017460
      py      :    -0.007356
      dz2     :     0.004363  d :     0.022857
      dxz     :     0.016210
      dyz     :     0.001352
      dx2y2   :     0.000616
      dxy     :     0.000316
  1 O s       :     0.011173  s :     0.011173
      pz      :     0.820614  p :     0.872968
      px      :     0.015239
      py      :     0.037114
      dz2     :     0.000155  d :    -0.000188
      dxz     :    -0.000104
      dyz     :     0.000002
      dx2y2   :    -0.000102
      dxy     :    -0.000139
  2 H s       :     0.095554  s :     0.095554
  3 H s       :     0.018587  s :     0.018587
  4 H s       :     0.017090  s :     0.017090


                      *****************************
                      * MAYER POPULATION ANALYSIS *
                      *****************************

  NA   - Mulliken gross atomic population
  ZA   - Total nuclear charge
  QA   - Mulliken gross atomic charge
  VA   - Mayer's total valence
  BVA  - Mayer's bonded valence
  FA   - Mayer's free valence

  ATOM       NA         ZA         QA         VA         BVA        FA
  0 C      6.1143     6.0000    -0.1143     3.9491     3.9459     0.0032
  1 O      8.2275     8.0000    -0.2275     2.0665     1.3077     0.7588
  2 H      0.8634     1.0000     0.1366     0.9520     0.9376     0.0144
  3 H      0.8966     1.0000     0.1034     0.9417     0.9411     0.0006
  4 H      0.8983     1.0000     0.1017     0.9418     0.9413     0.0005

  Mayer bond orders larger than 0.100000
B(  0-C ,  1-O ) :   1.1870 B(  0-C ,  2-H ) :   0.8962 B(  0-C ,  3-H ) :   0.9313 
B(  0-C ,  4-H ) :   0.9314 

-------
TIMINGS
-------

Total SCF time: 0 days 0 hours 3 min 28 sec 

Total time                  ....     208.835 sec
Sum of individual times     ....     169.563 sec  ( 81.2%)

Fock matrix formation       ....     143.991 sec  ( 68.9%)
  XC integration            ....      81.508 sec  ( 56.6% of F)
    Basis function eval.    ....       0.136 sec  (  0.2% of XC)
    Density eval.           ....       0.101 sec  (  0.1% of XC)
    XC-Functional eval.     ....       0.129 sec  (  0.2% of XC)
    XC-Potential eval.      ....       0.093 sec  (  0.1% of XC)
Diagonalization             ....       0.020 sec  (  0.0%)
Density matrix formation    ....       9.288 sec  (  4.4%)
Population analysis         ....       8.510 sec  (  4.1%)
Initial guess               ....       0.002 sec  (  0.0%)
Orbital Transformation      ....       0.000 sec  (  0.0%)
Orbital Orthonormalization  ....       0.000 sec  (  0.0%)
DIIS solution               ....       6.446 sec  (  3.1%)
Grid generation             ....       1.306 sec  (  0.6%)


-------------------------------------------------------------------------------
                          DFT DISPERSION CORRECTION                            
                                                                               
                              DFTD3 V3.1  Rev 1                                
                          USING Becke-Johnson damping                          
-------------------------------------------------------------------------------
The B3LYP functional is recognized
Active option DFTDOPT                   ...         4   

molecular C6(AA) [au] = 171.074186 


            DFT-D V3
 parameters
 s6 scaling factor         :     1.0000 
 a1 scaling factor         :     0.3981 
 s8 scaling factor         :     1.9889 
 a2 scaling factor         :     4.4211 
 ad hoc parameters k1-k3   :    16.0000     1.3333    -4.0000 

 Edisp/kcal,au: -1.522332367314  -0.002425990790 
 E6   /kcal   :  -0.780949813 
 E8   /kcal   :  -0.741382554 
 % E8         :  48.700439551 

-------------------------   ----------------
Dispersion correction           -0.002425991
-------------------------   ----------------


-------------------------   --------------------
FINAL SINGLE POINT ENERGY      -114.895668309183
-------------------------   --------------------

                                *** OPTIMIZATION RUN DONE ***

                            ***************************************
                            *     ORCA property calculations      *
                            ***************************************

                                    ---------------------
                                    Active property flags
                                    ---------------------
   (+) Dipole Moment


------------------------------------------------------------------------------
                       ORCA ELECTRIC PROPERTIES CALCULATION
------------------------------------------------------------------------------

Dipole Moment Calculation                       ... on
Quadrupole Moment Calculation                   ... off
Polarizability Calculation                      ... off
GBWName                                         ... orca0.gbw
Electron density file                           ... orca0.scfp
The origin for moment calculation is the CENTER OF MASS  = ( 0.497637, -0.548718 -0.115265)

-------------
DIPOLE MOMENT
-------------
                                X             Y             Z
Electronic contribution:      2.00283      -0.92370      -0.14603
Nuclear contribution   :     -2.70522       1.22951       0.27638
                        -----------------------------------------
Total Dipole Moment    :     -0.70239       0.30581       0.13035
                        -----------------------------------------
Magnitude (a.u.)       :      0.77709
Magnitude (Debye)      :      1.97520



--------------------
Rotational spectrum 
--------------------
 
Rotational constants in cm-1:     5.160041     0.938217     0.931677 
Rotational constants in MHz : 154694.138847 28127.023993 27930.978513 

 Dipole components along the rotational axes: 
x,y,z [a.u.] :     0.770472     0.001023     0.101173 
x,y,z [Debye]:     1.958384     0.002600     0.257161 

 

Timings for individual modules:

Sum of individual times         ...     4398.704 sec (=  73.312 min)
GTO integral calculation        ...       76.110 sec (=   1.269 min)   1.7 %
SCF iterations                  ...     4276.376 sec (=  71.273 min)  97.2 %
SCF Gradient evaluation         ...       13.623 sec (=   0.227 min)   0.3 %
Geometry relaxation             ...       32.595 sec (=   0.543 min)   0.7 %
                             ****ORCA TERMINATED NORMALLY****
TOTAL RUN TIME: 0 days 1 hours 15 minutes 2 seconds 318 msec
