
                                 *****************
                                 * O   R   C   A *
                                 *****************

           --- An Ab Initio, DFT and Semiempirical electronic structure package ---

                  #######################################################
                  #                        -***-                        #
                  #          Department of theory and spectroscopy      #
                  #               Directorship: Frank Neese             #
                  #        Max Planck Institute fuer Kohlenforschung    #
                  #                Kaiser Wilhelm Platz 1               #
                  #                 D-45470 Muelheim/Ruhr               #
                  #                      Germany                        #
                  #                                                     #
                  #                  All rights reserved                #
                  #                        -***-                        #
                  #######################################################


                         Program Version 4.2.1 -  RELEASE  -


 With contributions from (in alphabetic order):
   Daniel Aravena         : Magnetic Suceptibility
   Michael Atanasov       : Ab Initio Ligand Field Theory (pilot matlab implementation)
   Alexander A. Auer      : GIAO ZORA, VPT2
   Ute Becker             : Parallelization
   Giovanni Bistoni       : ED, misc. LED, open-shell LED, HFLD
   Martin Brehm           : Molecular dynamics
   Dmytro Bykov           : SCF Hessian
   Vijay G. Chilkuri      : MRCI spin determinant printing, contributions to CSF-ICE
   Dipayan Datta          : RHF DLPNO-CCSD density
   Achintya Kumar Dutta   : EOM-CC, STEOM-CC
   Dmitry Ganyushin       : Spin-Orbit,Spin-Spin,Magnetic field MRCI
   Miquel Garcia          : C-PCM Hessian, Gaussian charge scheme
   Yang Guo               : DLPNO-NEVPT2, CIM, IAO-localization
   Andreas Hansen         : Spin unrestricted coupled pair/coupled cluster methods
   Benjamin Helmich-Paris : CASSCF linear response (MC-RPA)
   Lee Huntington         : MR-EOM, pCC
   Robert Izsak           : Overlap fitted RIJCOSX, COSX-SCS-MP3, EOM
   Christian Kollmar      : KDIIS, OOCD, Brueckner-CCSD(T), CCSD density
   Simone Kossmann        : Meta GGA functionals, TD-DFT gradient, OOMP2, MP2 Hessian
   Martin Krupicka        : AUTO-CI
   Lucas Lang             : DCDCAS
   Dagmar Lenk            : GEPOL surface, SMD
   Dimitrios Liakos       : Extrapolation schemes; Compound Job, initial MDCI parallelization
   Dimitrios Manganas     : Further ROCIS development; embedding schemes
   Dimitrios Pantazis     : SARC Basis sets
   Taras Petrenko         : DFT Hessian,TD-DFT gradient, ASA, ECA, R-Raman, ABS, FL, XAS/XES, NRVS
   Peter Pinski           : DLPNO-MP2, DLPNO-MP2 Gradient
   Christoph Reimann      : Effective Core Potentials
   Marius Retegan         : Local ZFS, SOC
   Christoph Riplinger    : Optimizer, TS searches, QM/MM, DLPNO-CCSD(T), (RO)-DLPNO pert. Triples
   Tobias Risthaus        : Range-separated hybrids, TD-DFT gradient, RPA, STAB
   Michael Roemelt        : Original ROCIS implementation
   Masaaki Saitow         : Open-shell DLPNO-CCSD energy and density
   Barbara Sandhoefer     : DKH picture change effects
   Avijit Sen             : IP-ROCIS
   Kantharuban Sivalingam : CASSCF convergence, NEVPT2, FIC-MRCI
   Bernardo de Souza      : ESD, SOC TD-DFT
   Georgi Stoychev        : AutoAux, RI-MP2 NMR
   Willem Van den Heuvel  : Paramagnetic NMR
   Boris Wezisla          : Elementary symmetry handling
   Frank Wennmohs         : Technical directorship


 We gratefully acknowledge several colleagues who have allowed us to
 interface, adapt or use parts of their codes:
   Stefan Grimme, W. Hujo, H. Kruse,             : VdW corrections, initial TS optimization,
                  C. Bannwarth                     DFT functionals, gCP, sTDA/sTD-DF
   Ed Valeev, F. Pavosevic, A. Kumar             : LibInt (2-el integral package), F12 methods
   Garnet Chan, S. Sharma, J. Yang, R. Olivares  : DMRG
   Ulf Ekstrom                                   : XCFun DFT Library
   Mihaly Kallay                                 : mrcc  (arbitrary order and MRCC methods)
   Andreas Klamt, Michael Diedenhofen            : otool_cosmo (COSMO solvation model)
   Jiri Pittner, Ondrej Demel                    : Mk-CCSD
   Frank Weinhold                                : gennbo (NPA and NBO analysis)
   Christopher J. Cramer and Donald G. Truhlar   : smd solvation model
   Lars Goerigk                                  : TD-DFT with DH, B97 family of functionals
   V. Asgeirsson, H. Jonsson                     : NEB implementation
   FAccTs GmbH                                   : IRC, NEB, NEB-TS, Multilevel, MM, QM/MM, CI optimization
   S Lehtola, MJT Oliveira, MAL Marques          : LibXC Library


 Your calculation uses the libint2 library for the computation of 2-el integrals
 For citations please refer to: http://libint.valeyev.net

 Your ORCA version has been built with support for libXC version: 4.2.3
 For citations please refer to: https://tddft.org/programs/libxc/

 This ORCA versions uses:
   CBLAS   interface :  Fast vector & matrix operations
   LAPACKE interface :  Fast linear algebra routines
   SCALAPACK package :  Parallel linear algebra routines


Your calculation utilizes the atom-pairwise dispersion correction
with the Becke-Johnson damping scheme (D3BJ)
Cite in your paper:
S.Grimme, S.Ehrlich, L.Goerigk, J Comput Chem, (2011), 32, 1456–1465 
S.Grimme, J.Antony, S.Ehrlich and H.Krieg, J.Chem.Phys., 132, (2010), 154104 
   

----- Orbital basis set information -----
Your calculation utilizes the basis: def2-SV(P)
   F. Weigend and R. Ahlrichs, Phys. Chem. Chem. Phys. 7, 3297 (2005).

----- AuxJ basis set information -----
Your calculation utilizes the auxiliary basis: def2/J
   F. Weigend, Phys. Chem. Chem. Phys. 8, 1057 (2006).

================================================================================
                                        WARNINGS
                       Please study these warnings very carefully!
================================================================================


WARNING: Geometry Optimization
  ===> : Switching off AutoStart
         For restart on a previous wavefunction, please use MOREAD

INFO   : the flag for use of LIBINT has been found!

================================================================================
                                       INPUT FILE
================================================================================
NAME = orca1.inp
|  1> ! UKS B3LYP def2-SV(P) def2/J D3BJ Opt
|  2> %scf Convergence VeryTight
|  3> SmearTemp 2000
|  4> maxiter 500
|  5> end
|  6> *xyz 0 2
|  7> C -0.377102 -0.031431 -0.011337
|  8> O 0.958016 -0.321821 -0.335155
|  9> H -0.522767 0.053064 1.082002
| 10> H -0.621923 0.926529 -0.510577
| 11> H -0.94556 -0.886493 -0.459777
| 12> *
| 13> 
| 14>                          ****END OF INPUT****
================================================================================

                       *****************************
                       * Geometry Optimization Run *
                       *****************************

Geometry optimization settings:
Update method            Update   .... BFGS
Choice of coordinates    CoordSys .... Z-matrix Internals
Initial Hessian          InHess   .... Almoef's Model

Convergence Tolerances:
Energy Change            TolE     ....  5.0000e-06 Eh
Max. Gradient            TolMAXG  ....  3.0000e-04 Eh/bohr
RMS Gradient             TolRMSG  ....  1.0000e-04 Eh/bohr
Max. Displacement        TolMAXD  ....  4.0000e-03 bohr
RMS Displacement         TolRMSD  ....  2.0000e-03 bohr
Strict Convergence                ....  False
------------------------------------------------------------------------------
                        ORCA OPTIMIZATION COORDINATE SETUP
------------------------------------------------------------------------------

The optimization will be done in new redundant internal coordinates
Making redundant internal coordinates   ...  (new redundants) done
Evaluating the initial hessian          ...  (Almloef) done
Evaluating the coordinates              ...  done
Calculating the B-matrix                .... done
Calculating the G-matrix                .... done
Diagonalizing the G-matrix              .... done
The first mode is                       ....    1
The number of degrees of freedom        ....    9

    -----------------------------------------------------------------
                    Redundant Internal Coordinates


    -----------------------------------------------------------------
         Definition                    Initial Value    Approx d2E/dq
    -----------------------------------------------------------------
      1. B(O   1,C   0)                  1.4042         0.531191   
      2. B(H   2,C   0)                  1.1062         0.339256   
      3. B(H   3,C   0)                  1.1076         0.337505   
      4. B(H   4,C   0)                  1.1204         0.322008   
      5. A(O   1,C   0,H   3)          106.5633         0.338057   
      6. A(H   2,C   0,H   3)          110.5061         0.285234   
      7. A(O   1,C   0,H   4)          103.4313         0.335422   
      8. A(H   2,C   0,H   4)          112.7715         0.283158   
      9. A(H   3,C   0,H   4)          111.5607         0.282930   
     10. A(O   1,C   0,H   2)          111.6489         0.338349   
    -----------------------------------------------------------------

Number of atoms                         .... 5
Number of degrees of freedom            .... 10

Time needed for optimization step       :     3.09 sec

         *************************************************************
         *                GEOMETRY OPTIMIZATION CYCLE   1            *
         *************************************************************
---------------------------------
CARTESIAN COORDINATES (ANGSTROEM)
---------------------------------
  C     -0.377102   -0.031431   -0.011337
  O      0.958016   -0.321821   -0.335155
  H     -0.522767    0.053064    1.082002
  H     -0.621923    0.926529   -0.510577
  H     -0.945560   -0.886493   -0.459777

----------------------------
CARTESIAN COORDINATES (A.U.)
----------------------------
  NO LB      ZA    FRAG     MASS         X           Y           Z
   0 C     6.0000    0    12.011   -0.712620   -0.059396   -0.021424
   1 O     8.0000    0    15.999    1.810388   -0.608154   -0.633351
   2 H     1.0000    0     1.008   -0.987886    0.100276    2.044687
   3 H     1.0000    0     1.008   -1.175264    1.750886   -0.964851
   4 H     1.0000    0     1.008   -1.786849   -1.675229   -0.868853

--------------------------------
INTERNAL COORDINATES (ANGSTROEM)
--------------------------------
 C      0   0   0     0.000000000000     0.00000000     0.00000000
 O      1   0   0     1.404181086309     0.00000000     0.00000000
 H      1   2   0     1.106231380034   111.64893641     0.00000000
 H      1   2   3     1.107639499675   106.56330662   120.74767731
 H      1   2   3     1.120434717067   103.43132553   238.47107420

---------------------------
INTERNAL COORDINATES (A.U.)
---------------------------
 C      0   0   0     0.000000000000     0.00000000     0.00000000
 O      1   0   0     2.653517695556     0.00000000     0.00000000
 H      1   2   0     2.090474349013   111.64893641     0.00000000
 H      1   2   3     2.093135309500   106.56330662   120.74767731
 H      1   2   3     2.117314766193   103.43132553   238.47107420

---------------------
BASIS SET INFORMATION
---------------------
There are 3 groups of distinct atoms

 Group   1 Type C   : 7s4p1d contracted to 3s2p1d pattern {511/31/1}
 Group   2 Type O   : 7s4p1d contracted to 3s2p1d pattern {511/31/1}
 Group   3 Type H   : 4s contracted to 2s pattern {31}

Atom   0C    basis set group =>   1
Atom   1O    basis set group =>   2
Atom   2H    basis set group =>   3
Atom   3H    basis set group =>   3
Atom   4H    basis set group =>   3
---------------------------------
AUXILIARY/J BASIS SET INFORMATION
---------------------------------
There are 3 groups of distinct atoms

 Group   1 Type C   : 12s5p4d2f1g contracted to 6s4p3d1f1g pattern {711111/2111/211/2/1}
 Group   2 Type O   : 12s5p4d2f1g contracted to 6s4p3d1f1g pattern {711111/2111/211/2/1}
 Group   3 Type H   : 5s2p1d contracted to 3s1p1d pattern {311/2/1}

Atom   0C    basis set group =>   1
Atom   1O    basis set group =>   2
Atom   2H    basis set group =>   3
Atom   3H    basis set group =>   3
Atom   4H    basis set group =>   3
------------------------------------------------------------------------------
                           ORCA GTO INTEGRAL CALCULATION
------------------------------------------------------------------------------

                         BASIS SET STATISTICS AND STARTUP INFO

 # of primitive gaussian shells          ...   36
 # of primitive gaussian functions       ...   60
 # of contracted shells                  ...   18
 # of contracted basis functions         ...   34
 Highest angular momentum                ...    2
 Maximum contraction depth               ...    5
 Integral package used                   ... LIBINT
 Integral threshhold            Thresh   ...  1.000e-12
 Primitive cut-off              TCut     ...  1.000e-14


------------------------------ INTEGRAL EVALUATION ----------------------------


 * One electron integrals 
 Pre-screening matrix                    ... done
 Shell pair data                         ... done (   0.000 sec)

-------------------------------------------------------------------------------
                                 ORCA SCF
-------------------------------------------------------------------------------

------------
SCF SETTINGS
------------
Hamiltonian:
 Density Functional     Method          .... DFT(GTOs)
 Exchange Functional    Exchange        .... B88
   X-Alpha parameter    XAlpha          ....  0.666667
   Becke's b parameter  XBeta           ....  0.004200
 Correlation Functional Correlation     .... LYP
 LDA part of GGA corr.  LDAOpt          .... VWN-5
 Gradients option       PostSCFGGA      .... off
 Hybrid DFT is turned on
   Fraction HF Exchange ScalHFX         ....  0.200000
   Scaling of DF-GGA-X  ScalDFX         ....  0.720000
   Scaling of DF-GGA-C  ScalDFC         ....  0.810000
   Scaling of DF-LDA-C  ScalLDAC        ....  1.000000
   Perturbative correction              ....  0.000000
   Density functional embedding theory  .... OFF
   NL short-range parameter             ....  4.800000


General Settings:
 Integral files         IntName         .... orca1
 Hartree-Fock type      HFTyp           .... UHF
 Total Charge           Charge          ....    0
 Multiplicity           Mult            ....    2
 Number of Electrons    NEL             ....   17
 Basis Dimension        Dim             ....   34
 Nuclear Repulsion      ENuc            ....     33.7772725293 Eh

Convergence Acceleration:
 DIIS                   CNVDIIS         .... on
   Start iteration      DIISMaxIt       ....    12
   Startup error        DIISStart       ....  0.200000
   # of expansion vecs  DIISMaxEq       ....     5
   Bias factor          DIISBfac        ....   1.050
   Max. coefficient     DIISMaxC        ....  10.000
 Newton-Raphson         CNVNR           .... off
 SOSCF                  CNVSOSCF        .... off
 Level Shifting         CNVShift        .... on
   Level shift para.    LevelShift      ....    0.2500
   Turn off err/grad.   ShiftErr        ....    0.0010
 Zerner damping         CNVZerner       .... off
 Static damping         CNVDamp         .... on
   Fraction old density DampFac         ....    0.7000
   Max. Damping (<1)    DampMax         ....    0.9800
   Min. Damping (>=0)   DampMin         ....    0.0000
   Turn off err/grad.   DampErr         ....    0.1000
 Fernandez-Rico         CNVRico         .... off

SCF Procedure:
 Maximum # iterations   MaxIter         ....   500
 SCF integral mode      SCFMode         .... Direct
   Integral package                     .... LIBINT
 Reset frequency        DirectResetFreq ....    20
 Integral Threshold     Thresh          ....  1.000e-12 Eh
 Primitive CutOff       TCut            ....  1.000e-14 Eh

Convergence Tolerance:
 Convergence Check Mode ConvCheckMode   .... Total+1el-Energy
 Convergence forced     ConvForced      .... 0
 Energy Change          TolE            ....  1.000e-09 Eh
 1-El. energy change                    ....  1.000e-06 Eh
 DIIS Error             TolErr          ....  1.000e-08


Diagonalization of the overlap matrix:
Smallest eigenvalue                        ... 1.221e-02
Time for diagonalization                   ...    0.000 sec
Threshold for overlap eigenvalues          ... 1.000e-08
Number of eigenvalues below threshold      ... 0
Time for construction of square roots      ...    6.130 sec
Total time needed                          ...    6.131 sec

-------------------
DFT GRID GENERATION
-------------------

General Integration Accuracy     IntAcc      ...  4.340
Radial Grid Type                 RadialGrid  ... Gauss-Chebyshev
Angular Grid (max. acc.)         AngularGrid ... Lebedev-110
Angular grid pruning method      GridPruning ... 3 (G Style)
Weight generation scheme         WeightScheme... Becke
Basis function cutoff            BFCut       ...    1.0000e-12
Integration weight cutoff        WCut        ...    1.0000e-14
Grids for H and He will be reduced by one unit

# of grid points (after initial pruning)     ...   5754 (   0.0 sec)
# of grid points (after weights+screening)   ...   5637 (   0.0 sec)
nearest neighbour list constructed           ...    0.0 sec
Grid point re-assignment to atoms done       ...    0.0 sec
Grid point division into batches done        ...    0.0 sec
Reduced shell lists constructed in    0.0 sec

Total number of grid points                  ...     5637
Total number of batches                      ...       91
Average number of points per batch           ...       61
Average number of grid points per atom       ...     1127
Average number of shells per batch           ...    16.18 (89.92%)
Average number of basis functions per batch  ...    30.84 (90.70%)
Average number of large shells per batch     ...    15.28 (94.43%)
Average number of large basis fcns per batch ...    28.98 (93.97%)
Maximum spatial batch extension              ...  25.60, 25.60, 18.90 au
Average spatial batch extension              ...   5.14,  4.89,  4.79 au

Time for grid setup =    0.843 sec

------------------------------
INITIAL GUESS: MODEL POTENTIAL
------------------------------
Loading Hartree-Fock densities                     ... done
Calculating cut-offs                               ... done
Setting up the integral package                    ... done
Initializing the effective Hamiltonian             ... done
Starting the Coulomb interaction                   ... done (   0.0 sec)
Reading the grid                                   ... done
Mapping shells                                     ... done
Starting the XC term evaluation                    ... done (   0.0 sec)
  promolecular density results
     # of electrons  =     16.997770361
     EX              =    -14.144969415
     EC              =     -0.558940401
     EX+EC           =    -14.703909817
Transforming the Hamiltonian                       ... done (   0.0 sec)
Diagonalizing the Hamiltonian                      ... done (   0.0 sec)
Back transforming the eigenvectors                 ... done (   0.0 sec)
Now organizing SCF variables                       ... done
                      ------------------
                      INITIAL GUESS DONE (   0.9 sec)
                      ------------------
--------------
SCF ITERATIONS
--------------
ITER       Energy         Delta-E        Max-DP      RMS-DP      [F,P]     Damp
               ***  Starting incremental Fock matrix formation  ***
  0   -114.8449118360   0.000000000000 0.02547975  0.00214582  0.1419014 0.7000
  1   -114.8636613784  -0.018749542342 0.01520011  0.00150512  0.0629544 0.7000
                               ***Turning on DIIS***
  2   -114.8723824972  -0.008721118816 0.02729831  0.00267968  0.0278379 0.0000
  3   -114.8868785243  -0.014496027057 0.01434961  0.00122475  0.0397301 0.0000
  4   -114.8897805801  -0.002902055849 0.00385298  0.00034347  0.0048236 0.0000
  5   -114.8899279168  -0.000147336737 0.00197047  0.00017937  0.0041723 0.0000
  6   -114.8899746560  -0.000046739176 0.00075044  0.00008020  0.0011390 0.0000
  7   -114.8899859560  -0.000011300028 0.00062211  0.00005601  0.0005426 0.0000
  8   -114.8899891030  -0.000003146948 0.00009745  0.00000702  0.0001371 0.0000
  9   -114.8899891663  -0.000000063320 0.00008773  0.00000438  0.0000315 0.0000
 10   -114.8899891918  -0.000000025491 0.00008496  0.00000378  0.0000324 0.0000
 11   -114.8899892118  -0.000000019956 0.00011304  0.00000488  0.0000324 0.0000
 12   -114.8899892365  -0.000000024691 0.00020512  0.00000872  0.0000320 0.0000
 13   -114.8899892784  -0.000000041951 0.00024145  0.00001014  0.0000308 0.0000
 14   -114.8899893242  -0.000000045785 0.00050298  0.00002113  0.0000288 0.0000
 15   -114.8899894088  -0.000000084660 0.00086261  0.00003607  0.0000246 0.0000
 16   -114.8899895202  -0.000000111316 0.00128880  0.00005379  0.0000170 0.0000
 17   -114.8899896074  -0.000000087249 0.00043741  0.00001816  0.0000054 0.0000
 18   -114.8899896156  -0.000000008170 0.00010100  0.00000418  0.0000016 0.0000
 19   -114.8899896159  -0.000000000356 0.00001803  0.00000073  0.0000007 0.0000
               *** Restarting incremental Fock matrix formation ***
                                   *** Resetting DIIS ***
                 **** Energy Check signals convergence ****

 Fermi smearing  (ALPHA): E(HOMO(Eh)) = -0.331696 MUE = -0.107074 gap=   9.355 eV
 Fermi smearing   (BETA): E(HOMO(Eh)) = -0.256686 MUE = -0.190331 gap=   3.611 eV

N_FOD(alpha) =  0.000000
 N_FOD(beta) =  0.000056
       N_FOD =  0.000056

               *****************************************************
               *                     SUCCESS                       *
               *           SCF CONVERGED AFTER  20 CYCLES          *
               *****************************************************

Setting up the final grid:

General Integration Accuracy     IntAcc      ...  4.670
Radial Grid Type                 RadialGrid  ... Gauss-Chebyshev
Angular Grid (max. acc.)         AngularGrid ... Lebedev-302
Angular grid pruning method      GridPruning ... 3 (G Style)
Weight generation scheme         WeightScheme... Becke
Basis function cutoff            BFCut       ...    1.0000e-12
Integration weight cutoff        WCut        ...    1.0000e-14
Grids for H and He will be reduced by one unit

# of grid points (after initial pruning)     ...  22606 (   0.0 sec)
# of grid points (after weights+screening)   ...  22034 (   0.0 sec)
nearest neighbour list constructed           ...    0.0 sec
Grid point re-assignment to atoms done       ...    0.0 sec
Grid point division into batches done        ...    0.1 sec
Reduced shell lists constructed in    0.1 sec

Total number of grid points                  ...    22034
Total number of batches                      ...      347
Average number of points per batch           ...       63
Average number of grid points per atom       ...     4407
Average number of shells per batch           ...    14.99 (83.29%)
Average number of basis functions per batch  ...    28.45 (83.68%)
Average number of large shells per batch     ...    13.89 (92.68%)
Average number of large basis fcns per batch ...    26.26 (92.28%)
Maximum spatial batch extension              ...  20.64, 20.73, 17.61 au
Average spatial batch extension              ...   3.14,  3.18,  3.15 au

Final grid set up in    0.7 sec
Final integration                            ... done (  15.8 sec)
Change in XC energy                          ...    -0.000002722
Integrated number of electrons               ...    16.999985871
Previous integrated no of electrons          ...    17.000645357

----------------
TOTAL SCF ENERGY
----------------

Total Energy       :         -114.88999234 Eh           -3126.31563 eV

Components:
Nuclear Repulsion  :           33.77727253 Eh             919.12631 eV
Electronic Energy  :         -148.66726487 Eh           -4045.44194 eV
One Electron Energy:         -223.11910331 Eh           -6071.37946 eV
Two Electron Energy:           74.45183844 Eh            2025.93752 eV

Virial components:
Potential Energy   :         -228.94429270 Eh           -6229.89093 eV
Kinetic Energy     :          114.05430036 Eh            3103.57530 eV
Virial Ratio       :            2.00732714


DFT components:
N(Alpha)           :        8.999992305653 electrons
N(Beta)            :        7.999993565492 electrons
N(Total)           :       16.999985871145 electrons
E(X)               :      -11.448041316425 Eh       
E(C)               :       -0.660590695690 Eh       
E(XC)              :      -12.108632012115 Eh       
DFET-embed. en.    :        0.000000000000 Eh       

---------------
SCF CONVERGENCE
---------------

  Last Energy change         ...   -8.6970e-12  Tolerance :   1.0000e-09
  Last MAX-Density change    ...    3.1575e-07  Tolerance :   1.0000e-08
  Last RMS-Density change    ...    2.0627e-08  Tolerance :   1.0000e-09
  Last DIIS Error            ...    2.4984e-07  Tolerance :   1.0000e-08

             **** THE GBW FILE WAS UPDATED (orca1.gbw) ****
             **** DENSITY FILE WAS UPDATED (orca1.scfp) ****
             **** ENERGY FILE WAS UPDATED (orca1.en.tmp) ****
             **** THE GBW FILE WAS UPDATED (orca1.gbw) ****
             **** DENSITY FILE WAS UPDATED (orca1.scfp) ****
----------------
ORBITAL ENERGIES
----------------
                 SPIN UP ORBITALS
  NO   OCC          E(Eh)            E(eV) 
   0   1.0000     -19.166109      -521.5363 
   1   1.0000     -10.234350      -278.4908 
   2   1.0000      -0.993992       -27.0479 
   3   1.0000      -0.658396       -17.9159 
   4   1.0000      -0.482812       -13.1380 
   5   1.0000      -0.456148       -12.4124 
   6   1.0000      -0.417333       -11.3562 
   7   1.0000      -0.331696        -9.0259 
   8   1.0000      -0.278970        -7.5912 
   9   0.0000       0.064823         1.7639 
  10   0.0000       0.117985         3.2105 
  11   0.0000       0.126629         3.4457 
  12   0.0000       0.148949         4.0531 
  13   0.0000       0.444351        12.0914 
  14   0.0000       0.464752        12.6465 
  15   0.0000       0.480230        13.0677 
  16   0.0000       0.630999        17.1703 
  17   0.0000       0.645353        17.5609 
  18   0.0000       0.658419        17.9165 
  19   0.0000       0.667686        18.1687 
  20   0.0000       0.929092        25.2819 
  21   0.0000       0.944470        25.7003 
  22   0.0000       0.998904        27.1816 
  23   0.0000       1.393992        37.9324 
  24   0.0000       1.603751        43.6403 
  25   0.0000       1.619541        44.0699 
  26   0.0000       2.044836        55.6428 
  27   0.0000       2.051441        55.8226 
  28   0.0000       2.058390        56.0116 
  29   0.0000       2.600766        70.7704 
  30   0.0000       2.602334        70.8131 
  31   0.0000       2.844812        77.4113 
  32   0.0000       2.894529        78.7642 
  33   0.0000       3.312977        90.1507 

                 SPIN DOWN ORBITALS
  NO   OCC          E(Eh)            E(eV) 
   0   1.0000     -19.141864      -520.8766 
   1   1.0000     -10.235067      -278.5103 
   2   1.0000      -0.940278       -25.5863 
   3   1.0000      -0.640936       -17.4408 
   4   1.0000      -0.451535       -12.2869 
   5   1.0000      -0.445783       -12.1304 
   6   1.0000      -0.395779       -10.7697 
   7   1.0000      -0.256686        -6.9848 
   8   0.0000      -0.123977        -3.3736 
   9   0.0000       0.066743         1.8162 
  10   0.0000       0.123182         3.3520 
  11   0.0000       0.127687         3.4745 
  12   0.0000       0.158592         4.3155 
  13   0.0000       0.455172        12.3859 
  14   0.0000       0.468323        12.7437 
  15   0.0000       0.485933        13.2229 
  16   0.0000       0.641066        17.4443 
  17   0.0000       0.650252        17.6943 
  18   0.0000       0.662485        18.0271 
  19   0.0000       0.667483        18.1631 
  20   0.0000       0.947120        25.7724 
  21   0.0000       1.013274        27.5726 
  22   0.0000       1.032394        28.0929 
  23   0.0000       1.417887        38.5827 
  24   0.0000       1.614731        43.9391 
  25   0.0000       1.619432        44.0670 
  26   0.0000       2.045423        55.6588 
  27   0.0000       2.060194        56.0607 
  28   0.0000       2.063696        56.1560 
  29   0.0000       2.676636        72.8350 
  30   0.0000       2.683931        73.0335 
  31   0.0000       2.906010        79.0765 
  32   0.0000       2.913682        79.2853 
  33   0.0000       3.342162        90.9449 

                    ********************************
                    * MULLIKEN POPULATION ANALYSIS *
                    ********************************

------------------------------------------
FOD BASED MULLIKEN REDUCED ORBITAL CHARGES
------------------------------------------
  0 C s       :     0.000000  s :     0.000000
      pz      :     0.000001  p :     0.000001
      px      :     0.000000
      py      :     0.000000
      dz2     :     0.000000  d :     0.000001
      dxz     :     0.000000
      dyz     :     0.000000
      dx2y2   :     0.000000
      dxy     :     0.000000
  1 O s       :    -0.000000  s :    -0.000000
      pz      :     0.000021  p :     0.000047
      px      :     0.000003
      py      :     0.000023
      dz2     :    -0.000000  d :     0.000000
      dxz     :    -0.000000
      dyz     :     0.000000
      dx2y2   :     0.000000
      dxy     :     0.000000
  2 H s       :     0.000003  s :     0.000003
  3 H s       :     0.000002  s :     0.000002
  4 H s       :     0.000002  s :     0.000002


                     *******************************
                     * LOEWDIN POPULATION ANALYSIS *
                     *******************************

-------------------------------------------
LOEWDIN ATOMIC CHARGES AND SPIN POPULATIONS
-------------------------------------------
   0 C :   -0.211468   -0.018242
   1 O :   -0.140539    0.920976
   2 H :    0.096524   -0.000838
   3 H :    0.120484    0.038242
   4 H :    0.134999    0.059862

----------------------------------------------------
LOEWDIN REDUCED ORBITAL CHARGES AND SPIN POPULATIONS
----------------------------------------------------
CHARGE
  0 C s       :     2.982971  s :     2.982971
      pz      :     1.117492  p :     3.104792
      px      :     0.888613
      py      :     1.098686
      dz2     :     0.030717  d :     0.123705
      dxz     :     0.029243
      dyz     :     0.012623
      dx2y2   :     0.029299
      dxy     :     0.021823
  1 O s       :     3.700811  s :     3.700811
      pz      :     1.885159  p :     4.422862
      px      :     1.440198
      py      :     1.097505
      dz2     :     0.002406  d :     0.016867
      dxz     :     0.003781
      dyz     :     0.000289
      dx2y2   :     0.006549
      dxy     :     0.003842
  2 H s       :     0.903476  s :     0.903476
  3 H s       :     0.879516  s :     0.879516
  4 H s       :     0.865001  s :     0.865001

SPIN
  0 C s       :    -0.006682  s :    -0.006682
      pz      :    -0.004342  p :    -0.029024
      px      :    -0.022965
      py      :    -0.001717
      dz2     :     0.000084  d :     0.017465
      dxz     :    -0.000015
      dyz     :     0.000552
      dx2y2   :     0.002791
      dxy     :     0.014054
  1 O s       :     0.010987  s :     0.010987
      pz      :     0.014698  p :     0.910055
      px      :     0.068102
      py      :     0.827255
      dz2     :    -0.000032  d :    -0.000065
      dxz     :    -0.000051
      dyz     :     0.000008
      dx2y2   :     0.000024
      dxy     :    -0.000014
  2 H s       :    -0.000838  s :    -0.000838
  3 H s       :     0.038242  s :     0.038242
  4 H s       :     0.059862  s :     0.059862


                      *****************************
                      * MAYER POPULATION ANALYSIS *
                      *****************************

  NA   - Mulliken gross atomic population
  ZA   - Total nuclear charge
  QA   - Mulliken gross atomic charge
  VA   - Mayer's total valence
  BVA  - Mayer's bonded valence
  FA   - Mayer's free valence

  ATOM       NA         ZA         QA         VA         BVA        FA
  0 C      6.1009     6.0000    -0.1009     3.9219     3.9193     0.0026
  1 O      8.2534     8.0000    -0.2534     2.0213     1.2038     0.8176
  2 H      0.8985     1.0000     0.1015     0.9416     0.9416     0.0000
  3 H      0.8809     1.0000     0.1191     0.9522     0.9498     0.0024
  4 H      0.8662     1.0000     0.1338     0.9564     0.9508     0.0056

  Mayer bond orders larger than 0.100000
B(  0-C ,  1-O ) :   1.1145 B(  0-C ,  2-H ) :   0.9459 B(  0-C ,  3-H ) :   0.9353 
B(  0-C ,  4-H ) :   0.9235 

-------
TIMINGS
-------

Total SCF time: 0 days 0 hours 6 min 31 sec 

Total time                  ....     391.549 sec
Sum of individual times     ....     308.546 sec  ( 78.8%)

Fock matrix formation       ....     270.690 sec  ( 69.1%)
  XC integration            ....     150.084 sec  ( 55.4% of F)
    Basis function eval.    ....       0.225 sec  (  0.1% of XC)
    Density eval.           ....       0.166 sec  (  0.1% of XC)
    XC-Functional eval.     ....       0.213 sec  (  0.1% of XC)
    XC-Potential eval.      ....       0.168 sec  (  0.1% of XC)
Diagonalization             ....       0.018 sec  (  0.0%)
Density matrix formation    ....      15.512 sec  (  4.0%)
Population analysis         ....      10.097 sec  (  2.6%)
Initial guess               ....       0.099 sec  (  0.0%)
Orbital Transformation      ....       0.000 sec  (  0.0%)
Orbital Orthonormalization  ....       0.000 sec  (  0.0%)
DIIS solution               ....      10.584 sec  (  2.7%)
Grid generation             ....       1.546 sec  (  0.4%)


-------------------------------------------------------------------------------
                          DFT DISPERSION CORRECTION                            
                                                                               
                              DFTD3 V3.1  Rev 1                                
                          USING Becke-Johnson damping                          
-------------------------------------------------------------------------------
The B3LYP functional is recognized
Active option DFTDOPT                   ...         4   

molecular C6(AA) [au] = 171.071847 


            DFT-D V3
 parameters
 s6 scaling factor         :     1.0000 
 a1 scaling factor         :     0.3981 
 s8 scaling factor         :     1.9889 
 a2 scaling factor         :     4.4211 
 ad hoc parameters k1-k3   :    16.0000     1.3333    -4.0000 

 Edisp/kcal,au: -1.521994810791  -0.002425452860 
 E6   /kcal   :  -0.780624801 
 E8   /kcal   :  -0.741370009 
 % E8         :  48.710416359 

-------------------------   ----------------
Dispersion correction           -0.002425453
-------------------------   ----------------


-------------------------   --------------------
FINAL SINGLE POINT ENERGY      -114.892417791157
-------------------------   --------------------

------------------------------------------------------------------------------
                         ORCA SCF GRADIENT CALCULATION
------------------------------------------------------------------------------

Gradient of the Kohn-Sham DFT energy:
Kohn-Sham wavefunction type      ... UKS
Hartree-Fock exchange scaling    ...    0.200
Number of operators              ...    2
Number of atoms                  ...    5
Basis set dimensions             ...   34
Integral neglect threshold       ... 1.0e-12
Integral primitive cutoff        ... 1.0e-14

Nuclear repulsion gradient       ... done
One Electron Gradient            ... done
Pre-screening matrix             ... done
Starting the two electron gradient:
Two electron gradient done
Exchange-correlation gradient    ... done
Dispersion correction            ... done

------------------
CARTESIAN GRADIENT
------------------

   1   C   :   -0.036887469    0.007674865    0.006289140
   2   O   :    0.015386990   -0.002800344   -0.004356984
   3   H   :    0.006814326    0.002193489   -0.001733509
   4   H   :    0.009254074    0.000928866    0.002840595
   5   H   :    0.005432078   -0.007996876   -0.003039243

Difference to translation invariance:
           :   -0.0000000000    0.0000000000    0.0000000000

Norm of the cartesian gradient     ...    0.0444324494
RMS gradient                       ...    0.0114724091
MAX gradient                       ...    0.0368874691

-------
TIMINGS
-------

Total SCF gradient time            ...        0.778 sec

One electron gradient       ....       0.003 sec  (  0.3%)
Prescreening matrices       ....       0.007 sec  (  0.9%)
Two electron gradient       ....       0.072 sec  (  9.2%)
XC gradient                 ....       0.333 sec  ( 42.8%)
------------------------------------------------------------------------------
                         ORCA GEOMETRY RELAXATION STEP
------------------------------------------------------------------------------

Reading the OPT-File                    .... done
Getting information on internals        .... done
Copying old internal coords+grads       .... done
Making the new internal coordinates     .... (new redundants).... done
Validating the new internal coordinates .... (new redundants).... done
Calculating the B-matrix                .... done
Calculating the G,G- and P matrices     .... done
Transforming gradient to internals      .... done
Projecting the internal gradient        .... done
Number of atoms                         ....   5
Number of internal coordinates          ....  10
Current Energy                          ....  -114.892417791 Eh
Current gradient norm                   ....     0.044432449 Eh/bohr
Maximum allowed component of the step   ....  0.300
Current trust radius                    ....  0.300
Evaluating the initial hessian          ....  (Almloef) done
Projecting the Hessian                  .... done
Forming the augmented Hessian           .... done
Diagonalizing the augmented Hessian     .... done
Last element of RFO vector              ....  0.996753190
Lowest eigenvalues of augmented Hessian:
 -0.002229124  0.283076772  0.284727278  0.314203432  0.322082827
Length of the computed step             ....  0.080779843
The final length of the internal step   ....  0.080779843
Converting the step to cartesian space:
 Initial RMS(Int)=    0.0255448294
Transforming coordinates:
 Iter   0:  RMS(Cart)=    0.0188365617 RMS(Int)=    0.0257507301
 Iter   1:  RMS(Cart)=    0.0004687145 RMS(Int)=    0.0006558733
 Iter   2:  RMS(Cart)=    0.0000100697 RMS(Int)=    0.0000123755
 Iter   3:  RMS(Cart)=    0.0000002084 RMS(Int)=    0.0000002518
 Iter   4:  RMS(Cart)=    0.0000000086 RMS(Int)=    0.0000000119
done
Storing new coordinates                 .... done

                                .--------------------.
          ----------------------|Geometry convergence|-------------------------
          Item                value                   Tolerance       Converged
          ---------------------------------------------------------------------
          RMS gradient        0.0089556644            0.0001000000      NO
          MAX gradient        0.0162142448            0.0003000000      NO
          RMS step            0.0255448294            0.0020000000      NO
          MAX step            0.0453924026            0.0040000000      NO
          ........................................................
          Max(Bonds)      0.0161      Max(Angles)    2.60
          Max(Dihed)        0.00      Max(Improp)    0.00
          ---------------------------------------------------------------------

The optimization has not yet converged - more geometry cycles are needed


    ---------------------------------------------------------------------------
                         Redundant Internal Coordinates
                            (Angstroem and degrees)

        Definition                    Value    dE/dq     Step     New-Value
    ----------------------------------------------------------------------------
     1. B(O   1,C   0)                1.4042  0.016214 -0.0161    1.3881   
     2. B(H   2,C   0)                1.1062 -0.002442  0.0038    1.1100   
     3. B(H   3,C   0)                1.1076 -0.002524  0.0039    1.1116   
     4. B(H   4,C   0)                1.1204  0.004564 -0.0074    1.1130   
     5. A(O   1,C   0,H   3)          106.56 -0.009998    1.80    108.36   
     6. A(H   2,C   0,H   3)          110.51  0.001124   -0.07    110.44   
     7. A(O   1,C   0,H   4)          103.43 -0.008254    1.52    104.95   
     8. A(H   2,C   0,H   4)          112.77  0.009479   -1.75    111.02   
     9. A(H   3,C   0,H   4)          111.56  0.013652   -2.60    108.96   
    10. A(O   1,C   0,H   2)          111.65 -0.007771    1.42    113.07   
    ----------------------------------------------------------------------------

Time needed for optimization step       :     2.41 sec

         *************************************************************
         *                GEOMETRY OPTIMIZATION CYCLE   2            *
         *************************************************************
---------------------------------
CARTESIAN COORDINATES (ANGSTROEM)
---------------------------------
  C     -0.355937   -0.032486   -0.012371
  O      0.962481   -0.324724   -0.333590
  H     -0.529876    0.044737    1.081209
  H     -0.636616    0.917099   -0.517444
  H     -0.949388   -0.864777   -0.452649

----------------------------
CARTESIAN COORDINATES (A.U.)
----------------------------
  NO LB      ZA    FRAG     MASS         X           Y           Z
   0 C     6.0000    0    12.011   -0.672623   -0.061389   -0.023377
   1 O     8.0000    0    15.999    1.818825   -0.613640   -0.630394
   2 H     1.0000    0     1.008   -1.001320    0.084540    2.043189
   3 H     1.0000    0     1.008   -1.203029    1.733065   -0.977827
   4 H     1.0000    0     1.008   -1.794084   -1.634192   -0.855382

--------------------------------
INTERNAL COORDINATES (ANGSTROEM)
--------------------------------
 C      0   0   0     0.000000000000     0.00000000     0.00000000
 O      1   0   0     1.388095802774     0.00000000     0.00000000
 H      1   2   0     1.110015835199   113.04561655     0.00000000
 H      1   2   3     1.111570804564   108.33277923   122.69112996
 H      1   2   3     1.112986495347   104.91960370   238.92284866

---------------------------
INTERNAL COORDINATES (A.U.)
---------------------------
 C      0   0   0     0.000000000000     0.00000000     0.00000000
 O      1   0   0     2.623120914888     0.00000000     0.00000000
 H      1   2   0     2.097625932841   113.04561655     0.00000000
 H      1   2   3     2.100564399089   108.33277923   122.69112996
 H      1   2   3     2.103239666959   104.91960370   238.92284866


Diagonalization of the overlap matrix:
Smallest eigenvalue                        ... 1.233e-02
Time for diagonalization                   ...    0.000 sec
Threshold for overlap eigenvalues          ... 1.000e-08
Number of eigenvalues below threshold      ... 0
Time for construction of square roots      ...    2.028 sec
Total time needed                          ...    2.029 sec

-------------------
DFT GRID GENERATION
-------------------

General Integration Accuracy     IntAcc      ...  4.340
Radial Grid Type                 RadialGrid  ... Gauss-Chebyshev
Angular Grid (max. acc.)         AngularGrid ... Lebedev-110
Angular grid pruning method      GridPruning ... 3 (G Style)
Weight generation scheme         WeightScheme... Becke
Basis function cutoff            BFCut       ...    1.0000e-12
Integration weight cutoff        WCut        ...    1.0000e-14
Grids for H and He will be reduced by one unit

# of grid points (after initial pruning)     ...   5754 (   0.0 sec)
# of grid points (after weights+screening)   ...   5633 (   0.0 sec)
nearest neighbour list constructed           ...    0.0 sec
Grid point re-assignment to atoms done       ...    0.0 sec
Grid point division into batches done        ...    0.0 sec
Reduced shell lists constructed in    0.0 sec

Total number of grid points                  ...     5633
Total number of batches                      ...       90
Average number of points per batch           ...       62
Average number of grid points per atom       ...     1127
Average number of shells per batch           ...    16.16 (89.80%)
Average number of basis functions per batch  ...    30.85 (90.72%)
Average number of large shells per batch     ...    15.25 (94.36%)
Average number of large basis fcns per batch ...    28.81 (93.41%)
Maximum spatial batch extension              ...  25.60, 25.60, 22.36 au
Average spatial batch extension              ...   5.09,  4.99,  4.86 au

Time for grid setup =    2.249 sec

--------------
SCF ITERATIONS
--------------
ITER       Energy         Delta-E        Max-DP      RMS-DP      [F,P]     Damp
               ***  Starting incremental Fock matrix formation  ***
  0   -114.8914834283   0.000000000000 0.00088063  0.00011069  0.0069329 0.7000
  1   -114.8915597957  -0.000076367482 0.00078481  0.00010361  0.0053443 0.7000
                               ***Turning on DIIS***
  2   -114.8916184206  -0.000058624892 0.00203487  0.00027773  0.0039433 0.0000
  3   -114.8917660001  -0.000147579501 0.00066249  0.00007792  0.0006437 0.0000
  4   -114.8917710077  -0.000005007580 0.00031901  0.00002661  0.0006003 0.0000
  5   -114.8917717995  -0.000000791790 0.00026129  0.00001733  0.0003661 0.0000
  6   -114.8917722740  -0.000000474514 0.00037299  0.00001703  0.0001281 0.0000
  7   -114.8917726327  -0.000000358731 0.00031205  0.00001352  0.0001282 0.0000
  8   -114.8917729056  -0.000000272846 0.00051454  0.00002204  0.0001266 0.0000
  9   -114.8917733324  -0.000000426814 0.00121890  0.00005185  0.0001229 0.0000
 10   -114.8917742655  -0.000000933074 0.00293060  0.00012482  0.0001122 0.0000
 11   -114.8917761114  -0.000001845937 0.00455146  0.00019527  0.0000845 0.0000
 12   -114.8917778719  -0.000001760469 0.00156690  0.00006759  0.0000393 0.0000
 13   -114.8917781671  -0.000000295218 0.00150679  0.00006535  0.0000227 0.0000
 14   -114.8917782978  -0.000000130691 0.00047689  0.00002073  0.0000064 0.0000
 15   -114.8917783076  -0.000000009850 0.00007178  0.00000312  0.0000015 0.0000
 16   -114.8917783078  -0.000000000111 0.00000432  0.00000020  0.0000004 0.0000
 17   -114.8917783078  -0.000000000006 0.00000106  0.00000005  0.0000002 0.0000
 18   -114.8917783078  -0.000000000002 0.00000119  0.00000005  0.0000001 0.0000
                 **** Energy Check signals convergence ****

 Fermi smearing  (ALPHA): E(HOMO(Eh)) = -0.330614 MUE = -0.107088 gap=   9.404 eV
 Fermi smearing   (BETA): E(HOMO(Eh)) = -0.257906 MUE = -0.192200 gap=   3.576 eV

N_FOD(alpha) =  0.000000
 N_FOD(beta) =  0.000062
       N_FOD =  0.000062

               *****************************************************
               *                     SUCCESS                       *
               *           SCF CONVERGED AFTER  19 CYCLES          *
               *****************************************************

Setting up the final grid:

General Integration Accuracy     IntAcc      ...  4.670
Radial Grid Type                 RadialGrid  ... Gauss-Chebyshev
Angular Grid (max. acc.)         AngularGrid ... Lebedev-302
Angular grid pruning method      GridPruning ... 3 (G Style)
Weight generation scheme         WeightScheme... Becke
Basis function cutoff            BFCut       ...    1.0000e-12
Integration weight cutoff        WCut        ...    1.0000e-14
Grids for H and He will be reduced by one unit

# of grid points (after initial pruning)     ...  22606 (   0.0 sec)
# of grid points (after weights+screening)   ...  22034 (   0.0 sec)
nearest neighbour list constructed           ...    0.0 sec
Grid point re-assignment to atoms done       ...    0.0 sec
Grid point division into batches done        ...    0.1 sec
Reduced shell lists constructed in    0.1 sec

Total number of grid points                  ...    22034
Total number of batches                      ...      347
Average number of points per batch           ...       63
Average number of grid points per atom       ...     4407
Average number of shells per batch           ...    15.02 (83.46%)
Average number of basis functions per batch  ...    28.54 (83.94%)
Average number of large shells per batch     ...    13.96 (92.90%)
Average number of large basis fcns per batch ...    26.41 (92.54%)
Maximum spatial batch extension              ...  20.64, 20.73, 17.61 au
Average spatial batch extension              ...   3.15,  3.15,  3.19 au

Final grid set up in    1.4 sec
Final integration                            ... done (   8.6 sec)
Change in XC energy                          ...    -0.000012258
Integrated number of electrons               ...    16.999985681
Previous integrated no of electrons          ...    17.000610547
Total Energy       :         -114.89179057 Eh           -3126.36456 eV
  Last Energy change         ...    1.4353e-12  Tolerance :   1.0000e-09
  Last MAX-Density change    ...    7.3540e-07  Tolerance :   1.0000e-08
             **** THE GBW FILE WAS UPDATED (orca1.gbw) ****
             **** DENSITY FILE WAS UPDATED (orca1.scfp) ****
             **** ENERGY FILE WAS UPDATED (orca1.en.tmp) ****
             **** THE GBW FILE WAS UPDATED (orca1.gbw) ****
             **** DENSITY FILE WAS UPDATED (orca1.scfp) ****
Total SCF time: 0 days 0 hours 6 min 52 sec 


-------------------------------------------------------------------------------
                          DFT DISPERSION CORRECTION                            
                                                                               
                              DFTD3 V3.1  Rev 1                                
                          USING Becke-Johnson damping                          
-------------------------------------------------------------------------------
-------------------------   ----------------
Dispersion correction           -0.002425494
-------------------------   ----------------


-------------------------   --------------------
FINAL SINGLE POINT ENERGY      -114.894216059708
-------------------------   --------------------

------------------------------------------------------------------------------
                         ORCA SCF GRADIENT CALCULATION
------------------------------------------------------------------------------

Gradient of the Kohn-Sham DFT energy:
Kohn-Sham wavefunction type      ... UKS
Hartree-Fock exchange scaling    ...    0.200
Number of operators              ...    2
Number of atoms                  ...    5
Basis set dimensions             ...   34
Integral neglect threshold       ... 1.0e-12
Integral primitive cutoff        ... 1.0e-14

Nuclear repulsion gradient       ... done
One Electron Gradient            ... done
Pre-screening matrix             ... done
Starting the two electron gradient:
Two electron gradient done
Exchange-correlation gradient    ... done
Dispersion correction            ... done

------------------
CARTESIAN GRADIENT
------------------

   1   C   :   -0.026295747    0.000702075    0.002527190
   2   O   :    0.011303836   -0.001656176   -0.003270132
   3   H   :    0.003951431    0.001547741   -0.000422252
   4   H   :    0.005934191    0.001300324    0.001382284
   5   H   :    0.005106289   -0.001893964   -0.000217090

Difference to translation invariance:
           :   -0.0000000000   -0.0000000000    0.0000000000

Norm of the cartesian gradient     ...    0.0304347083
RMS gradient                       ...    0.0078582079
MAX gradient                       ...    0.0262957467

-------
TIMINGS
-------

Total SCF gradient time            ...        1.494 sec

One electron gradient       ....       0.003 sec  (  0.2%)
Prescreening matrices       ....       0.007 sec  (  0.5%)
Two electron gradient       ....       0.072 sec  (  4.8%)
XC gradient                 ....       0.344 sec  ( 23.0%)
------------------------------------------------------------------------------
                         ORCA GEOMETRY RELAXATION STEP
------------------------------------------------------------------------------

Reading the OPT-File                    .... done
Getting information on internals        .... done
Copying old internal coords+grads       .... done
Making the new internal coordinates     .... (new redundants).... done
Validating the new internal coordinates .... (new redundants).... done
Calculating the B-matrix                .... done
Calculating the G,G- and P matrices     .... done
Transforming gradient to internals      .... done
Projecting the internal gradient        .... done
Number of atoms                         ....   5
Number of internal coordinates          ....  10
Current Energy                          ....  -114.894216060 Eh
Current gradient norm                   ....     0.030434708 Eh/bohr
Maximum allowed component of the step   ....  0.300
Current trust radius                    ....  0.300
Updating the Hessian (BFGS)             .... done
Forming the augmented Hessian           .... done
Diagonalizing the augmented Hessian     .... done
Last element of RFO vector              ....  0.990495621
Lowest eigenvalues of augmented Hessian:
 -0.002448481  0.123704902  0.283223863  0.291374946  0.334084206
Length of the computed step             ....  0.138864082
The final length of the internal step   ....  0.138864082
Converting the step to cartesian space:
 Initial RMS(Int)=    0.0439126784
Transforming coordinates:
 Iter   0:  RMS(Cart)=    0.0293116084 RMS(Int)=    0.0442818753
 Iter   1:  RMS(Cart)=    0.0012806338 RMS(Int)=    0.0017503309
 Iter   2:  RMS(Cart)=    0.0000345214 RMS(Int)=    0.0000353365
 Iter   3:  RMS(Cart)=    0.0000017029 RMS(Int)=    0.0000024741
 Iter   4:  RMS(Cart)=    0.0000000875 RMS(Int)=    0.0000001010
done
Storing new coordinates                 .... done

                                .--------------------.
          ----------------------|Geometry convergence|-------------------------
          Item                value                   Tolerance       Converged
          ---------------------------------------------------------------------
          Energy change      -0.0017982686            0.0000050000      NO
          RMS gradient        0.0057639248            0.0001000000      NO
          MAX gradient        0.0118419786            0.0003000000      NO
          RMS step            0.0439126784            0.0020000000      NO
          MAX step            0.0789892859            0.0040000000      NO
          ........................................................
          Max(Bonds)      0.0323      Max(Angles)    4.53
          Max(Dihed)        0.00      Max(Improp)    0.00
          ---------------------------------------------------------------------

The optimization has not yet converged - more geometry cycles are needed


    ---------------------------------------------------------------------------
                         Redundant Internal Coordinates
                            (Angstroem and degrees)

        Definition                    Value    dE/dq     Step     New-Value
    ----------------------------------------------------------------------------
     1. B(O   1,C   0)                1.3881  0.011842 -0.0323    1.3558   
     2. B(H   2,C   0)                1.1100 -0.000927  0.0043    1.1143   
     3. B(H   3,C   0)                1.1116 -0.001017  0.0047    1.1162   
     4. B(H   4,C   0)                1.1130 -0.001220  0.0037    1.1167   
     5. A(O   1,C   0,H   3)          108.33 -0.006721    3.34    111.68   
     6. A(H   2,C   0,H   3)          110.40  0.000408    0.06    110.46   
     7. A(O   1,C   0,H   4)          104.92 -0.003926    2.13    107.05   
     8. A(H   2,C   0,H   4)          110.99  0.005965   -3.03    107.96   
     9. A(H   3,C   0,H   4)          108.93  0.008608   -4.53    104.41   
    10. A(O   1,C   0,H   2)          113.05 -0.004264    2.25    115.29   
    ----------------------------------------------------------------------------

Time needed for optimization step       :     3.17 sec

         *************************************************************
         *                GEOMETRY OPTIMIZATION CYCLE   3            *
         *************************************************************
---------------------------------
CARTESIAN COORDINATES (ANGSTROEM)
---------------------------------
  C     -0.318709   -0.028229   -0.012357
  O      0.965049   -0.329385   -0.327662
  H     -0.537224    0.031559    1.078641
  H     -0.660564    0.900883   -0.527949
  H     -0.957889   -0.834980   -0.445516

----------------------------
CARTESIAN COORDINATES (A.U.)
----------------------------
  NO LB      ZA    FRAG     MASS         X           Y           Z
   0 C     6.0000    0    12.011   -0.602273   -0.053346   -0.023352
   1 O     8.0000    0    15.999    1.823679   -0.622447   -0.619192
   2 H     1.0000    0     1.008   -1.015206    0.059639    2.038336
   3 H     1.0000    0     1.008   -1.248285    1.702423   -0.997679
   4 H     1.0000    0     1.008   -1.810147   -1.577884   -0.841904

--------------------------------
INTERNAL COORDINATES (ANGSTROEM)
--------------------------------
 C      0   0   0     0.000000000000     0.00000000     0.00000000
 O      1   0   0     1.355782780204     0.00000000     0.00000000
 H      1   2   0     1.114271191559   115.17041616     0.00000000
 H      1   2   3     1.116221176045   111.55908508   126.76667791
 H      1   2   3     1.116702336514   106.93530609   240.20632588

---------------------------
INTERNAL COORDINATES (A.U.)
---------------------------
 C      0   0   0     0.000000000000     0.00000000     0.00000000
 O      1   0   0     2.562058151672     0.00000000     0.00000000
 H      1   2   0     2.105667390964   115.17041616     0.00000000
 H      1   2   3     2.109352327608   111.55908508   126.76667791
 H      1   2   3     2.110261589122   106.93530609   240.20632588


Diagonalization of the overlap matrix:
Smallest eigenvalue                        ... 1.260e-02
Time for diagonalization                   ...    0.000 sec
Threshold for overlap eigenvalues          ... 1.000e-08
Number of eigenvalues below threshold      ... 0
Time for construction of square roots      ...    6.008 sec
Total time needed                          ...    6.538 sec

-------------------
DFT GRID GENERATION
-------------------

General Integration Accuracy     IntAcc      ...  4.340
Radial Grid Type                 RadialGrid  ... Gauss-Chebyshev
Angular Grid (max. acc.)         AngularGrid ... Lebedev-110
Angular grid pruning method      GridPruning ... 3 (G Style)
Weight generation scheme         WeightScheme... Becke
Basis function cutoff            BFCut       ...    1.0000e-12
Integration weight cutoff        WCut        ...    1.0000e-14
Grids for H and He will be reduced by one unit

# of grid points (after initial pruning)     ...   5754 (   0.0 sec)
# of grid points (after weights+screening)   ...   5631 (   0.0 sec)
nearest neighbour list constructed           ...    0.0 sec
Grid point re-assignment to atoms done       ...    0.0 sec
Grid point division into batches done        ...    0.0 sec
Reduced shell lists constructed in    0.0 sec

Total number of grid points                  ...     5631
Total number of batches                      ...       90
Average number of points per batch           ...       62
Average number of grid points per atom       ...     1126
Average number of shells per batch           ...    16.18 (89.87%)
Average number of basis functions per batch  ...    30.86 (90.76%)
Average number of large shells per batch     ...    15.26 (94.36%)
Average number of large basis fcns per batch ...    28.82 (93.41%)
Maximum spatial batch extension              ...  25.60, 25.60, 20.11 au
Average spatial batch extension              ...   5.13,  4.88,  4.62 au

Time for grid setup =    3.346 sec

--------------
SCF ITERATIONS
--------------
ITER       Energy         Delta-E        Max-DP      RMS-DP      [F,P]     Damp
               ***  Starting incremental Fock matrix formation  ***
  0   -114.8918993198   0.000000000000 0.00164953  0.00020265  0.0119181 0.7000
  1   -114.8921784526  -0.000279132811 0.00148096  0.00019400  0.0092948 0.7000
                               ***Turning on DIIS***
  2   -114.8923982028  -0.000219750253 0.00377451  0.00053004  0.0069543 0.0000
  3   -114.8929657114  -0.000567508562 0.00111645  0.00011023  0.0016776 0.0000
  4   -114.8929844633  -0.000018751949 0.00076277  0.00005529  0.0010889 0.0000
  5   -114.8929919843  -0.000007520969 0.00120670  0.00008764  0.0004727 0.0000
  6   -114.8929992678  -0.000007283446 0.00104004  0.00005182  0.0003561 0.0000
  7   -114.8930023233  -0.000003055579 0.00104202  0.00004847  0.0003574 0.0000
  8   -114.8930050183  -0.000002694950 0.00173053  0.00007954  0.0003497 0.0000
  9   -114.8930091988  -0.000004180514 0.00434202  0.00019971  0.0003300 0.0000
 10   -114.8930183837  -0.000009184854 0.00790814  0.00037030  0.0002745 0.0000
 11   -114.8930305258  -0.000012142181 0.00556037  0.00026628  0.0001674 0.0000
 12   -114.8930354133  -0.000004887474 0.00257773  0.00012595  0.0000904 0.0000
 13   -114.8930366355  -0.000001222147 0.00227920  0.00011259  0.0000484 0.0000
 14   -114.8930371325  -0.000000497045 0.00077886  0.00003891  0.0000151 0.0000
 15   -114.8930371733  -0.000000040798 0.00004148  0.00000216  0.0000029 0.0000
 16   -114.8930371736  -0.000000000298 0.00001457  0.00000075  0.0000005 0.0000
                 **** Energy Check signals convergence ****

 Fermi smearing  (ALPHA): E(HOMO(Eh)) = -0.326264 MUE = -0.107718 gap=   9.408 eV
 Fermi smearing   (BETA): E(HOMO(Eh)) = -0.259295 MUE = -0.194784 gap=   3.511 eV

N_FOD(alpha) =  0.000000
 N_FOD(beta) =  0.000075
       N_FOD =  0.000075

               *****************************************************
               *                     SUCCESS                       *
               *           SCF CONVERGED AFTER  17 CYCLES          *
               *****************************************************

Setting up the final grid:

General Integration Accuracy     IntAcc      ...  4.670
Radial Grid Type                 RadialGrid  ... Gauss-Chebyshev
Angular Grid (max. acc.)         AngularGrid ... Lebedev-302
Angular grid pruning method      GridPruning ... 3 (G Style)
Weight generation scheme         WeightScheme... Becke
Basis function cutoff            BFCut       ...    1.0000e-12
Integration weight cutoff        WCut        ...    1.0000e-14
Grids for H and He will be reduced by one unit

# of grid points (after initial pruning)     ...  22606 (   0.0 sec)
# of grid points (after weights+screening)   ...  22053 (   0.0 sec)
nearest neighbour list constructed           ...    0.0 sec
Grid point re-assignment to atoms done       ...    0.0 sec
Grid point division into batches done        ...    0.1 sec
Reduced shell lists constructed in    0.1 sec

Total number of grid points                  ...    22053
Total number of batches                      ...      348
Average number of points per batch           ...       63
Average number of grid points per atom       ...     4411
Average number of shells per batch           ...    15.06 (83.65%)
Average number of basis functions per batch  ...    28.63 (84.20%)
Average number of large shells per batch     ...    13.93 (92.48%)
Average number of large basis fcns per batch ...    26.37 (92.12%)
Maximum spatial batch extension              ...  20.64, 20.71, 20.64 au
Average spatial batch extension              ...   3.14,  3.17,  3.25 au

Final grid set up in    2.2 sec
Final integration                            ... done (   8.0 sec)
Change in XC energy                          ...    -0.000049045
Integrated number of electrons               ...    16.999985364
Previous integrated no of electrons          ...    17.000534333
Total Energy       :         -114.89308622 Eh           -3126.39982 eV
  Last Energy change         ...   -3.2685e-11  Tolerance :   1.0000e-09
  Last MAX-Density change    ...    2.6361e-06  Tolerance :   1.0000e-08
             **** THE GBW FILE WAS UPDATED (orca1.gbw) ****
             **** DENSITY FILE WAS UPDATED (orca1.scfp) ****
             **** ENERGY FILE WAS UPDATED (orca1.en.tmp) ****
             **** THE GBW FILE WAS UPDATED (orca1.gbw) ****
             **** DENSITY FILE WAS UPDATED (orca1.scfp) ****
Total SCF time: 0 days 0 hours 8 min 37 sec 


-------------------------------------------------------------------------------
                          DFT DISPERSION CORRECTION                            
                                                                               
                              DFTD3 V3.1  Rev 1                                
                          USING Becke-Johnson damping                          
-------------------------------------------------------------------------------
-------------------------   ----------------
Dispersion correction           -0.002426075
-------------------------   ----------------


-------------------------   --------------------
FINAL SINGLE POINT ENERGY      -114.895512293695
-------------------------   --------------------

------------------------------------------------------------------------------
                         ORCA SCF GRADIENT CALCULATION
------------------------------------------------------------------------------

Gradient of the Kohn-Sham DFT energy:
Kohn-Sham wavefunction type      ... UKS
Hartree-Fock exchange scaling    ...    0.200
Number of operators              ...    2
Number of atoms                  ...    5
Basis set dimensions             ...   34
Integral neglect threshold       ... 1.0e-12
Integral primitive cutoff        ... 1.0e-14

Nuclear repulsion gradient       ... done
One Electron Gradient            ... done
Pre-screening matrix             ... done
Starting the two electron gradient:
Two electron gradient done
Exchange-correlation gradient    ... done
Dispersion correction            ... done

------------------
CARTESIAN GRADIENT
------------------

   1   C   :   -0.001619347   -0.003742415   -0.000305116
   2   O   :   -0.000208544    0.001259390   -0.000209158
   3   H   :    0.000061768    0.000456539    0.000027809
   4   H   :    0.000960778   -0.000009473   -0.000252337
   5   H   :    0.000805345    0.002035959    0.000738801

Difference to translation invariance:
           :    0.0000000000   -0.0000000000    0.0000000000

Norm of the cartesian gradient     ...    0.0049933714
RMS gradient                       ...    0.0012892830
MAX gradient                       ...    0.0037424145

-------
TIMINGS
-------

Total SCF gradient time            ...        0.587 sec

One electron gradient       ....       0.003 sec  (  0.5%)
Prescreening matrices       ....       0.007 sec  (  1.3%)
Two electron gradient       ....       0.073 sec  ( 12.5%)
XC gradient                 ....       0.346 sec  ( 58.9%)
------------------------------------------------------------------------------
                         ORCA GEOMETRY RELAXATION STEP
------------------------------------------------------------------------------

Reading the OPT-File                    .... done
Getting information on internals        .... done
Copying old internal coords+grads       .... done
Making the new internal coordinates     .... (new redundants).... done
Validating the new internal coordinates .... (new redundants).... done
Calculating the B-matrix                .... done
Calculating the G,G- and P matrices     .... done
Transforming gradient to internals      .... done
Projecting the internal gradient        .... done
Number of atoms                         ....   5
Number of internal coordinates          ....  10
Current Energy                          ....  -114.895512294 Eh
Current gradient norm                   ....     0.004993371 Eh/bohr
Maximum allowed component of the step   ....  0.300
Current trust radius                    ....  0.300
Updating the Hessian (BFGS)             .... done
Forming the augmented Hessian           .... done
Diagonalizing the augmented Hessian     .... done
Last element of RFO vector              ....  0.999911767
Lowest eigenvalues of augmented Hessian:
 -0.000043240  0.116067110  0.283508573  0.291304020  0.334366176
Length of the computed step             ....  0.013284901
The final length of the internal step   ....  0.013284901
Converting the step to cartesian space:
 Initial RMS(Int)=    0.0042010546
Transforming coordinates:
 Iter   0:  RMS(Cart)=    0.0030391292 RMS(Int)=    0.0041978574
 Iter   1:  RMS(Cart)=    0.0000127690 RMS(Int)=    0.0000162005
 Iter   2:  RMS(Cart)=    0.0000000450 RMS(Int)=    0.0000000545
done
Storing new coordinates                 .... done

                                .--------------------.
          ----------------------|Geometry convergence|-------------------------
          Item                value                   Tolerance       Converged
          ---------------------------------------------------------------------
          Energy change      -0.0012962340            0.0000050000      NO
          RMS gradient        0.0011503135            0.0001000000      NO
          MAX gradient        0.0022182074            0.0003000000      NO
          RMS step            0.0042010546            0.0020000000      NO
          MAX step            0.0090283741            0.0040000000      NO
          ........................................................
          Max(Bonds)      0.0035      Max(Angles)    0.52
          Max(Dihed)        0.00      Max(Improp)    0.00
          ---------------------------------------------------------------------

The optimization has not yet converged - more geometry cycles are needed


    ---------------------------------------------------------------------------
                         Redundant Internal Coordinates
                            (Angstroem and degrees)

        Definition                    Value    dE/dq     Step     New-Value
    ----------------------------------------------------------------------------
     1. B(O   1,C   0)                1.3558 -0.000429 -0.0008    1.3550   
     2. B(H   2,C   0)                1.1143  0.000040  0.0002    1.1144   
     3. B(H   3,C   0)                1.1162 -0.000186  0.0005    1.1168   
     4. B(H   4,C   0)                1.1167 -0.002218  0.0035    1.1202   
     5. A(O   1,C   0,H   3)          111.56 -0.002190    0.52    112.08   
     6. A(H   2,C   0,H   3)          110.34 -0.000290    0.06    110.40   
     7. A(O   1,C   0,H   4)          106.94  0.001551   -0.17    106.76   
     8. A(H   2,C   0,H   4)          107.84  0.000850   -0.30    107.54   
     9. A(H   3,C   0,H   4)          104.29 -0.000039   -0.17    104.12   
    10. A(O   1,C   0,H   2)          115.17  0.000288    0.05    115.22   
    ----------------------------------------------------------------------------

Time needed for optimization step       :     2.89 sec

         *************************************************************
         *                GEOMETRY OPTIMIZATION CYCLE   4            *
         *************************************************************
---------------------------------
CARTESIAN COORDINATES (ANGSTROEM)
---------------------------------
  C     -0.316225   -0.025372   -0.012596
  O      0.965659   -0.332253   -0.326708
  H     -0.537215    0.030705    1.078269
  H     -0.664012    0.902173   -0.528223
  H     -0.957543   -0.835405   -0.445586

----------------------------
CARTESIAN COORDINATES (A.U.)
----------------------------
  NO LB      ZA    FRAG     MASS         X           Y           Z
   0 C     6.0000    0    12.011   -0.597579   -0.047947   -0.023804
   1 O     8.0000    0    15.999    1.824832   -0.627868   -0.617388
   2 H     1.0000    0     1.008   -1.015190    0.058025    2.037633
   3 H     1.0000    0     1.008   -1.254801    1.704860   -0.998197
   4 H     1.0000    0     1.008   -1.809494   -1.578686   -0.842035

--------------------------------
INTERNAL COORDINATES (ANGSTROEM)
--------------------------------
 C      0   0   0     0.000000000000     0.00000000     0.00000000
 O      1   0   0     1.355016603764     0.00000000     0.00000000
 H      1   2   0     1.114436641815   115.20777835     0.00000000
 H      1   2   3     1.116766224802   112.06682871   127.32499179
 H      1   2   3     1.120232335568   106.75165008   240.70211539

---------------------------
INTERNAL COORDINATES (A.U.)
---------------------------
 C      0   0   0     0.000000000000     0.00000000     0.00000000
 O      1   0   0     2.560610288030     0.00000000     0.00000000
 H      1   2   0     2.105980046637   115.20777835     0.00000000
 H      1   2   3     2.110382320490   112.06682871   127.32499179
 H      1   2   3     2.116932320586   106.75165008   240.70211539


Diagonalization of the overlap matrix:
Smallest eigenvalue                        ... 1.266e-02
Time for diagonalization                   ...    0.001 sec
Threshold for overlap eigenvalues          ... 1.000e-08
Number of eigenvalues below threshold      ... 0
Time for construction of square roots      ...    0.506 sec
Total time needed                          ...    0.507 sec

-------------------
DFT GRID GENERATION
-------------------

General Integration Accuracy     IntAcc      ...  4.340
Radial Grid Type                 RadialGrid  ... Gauss-Chebyshev
Angular Grid (max. acc.)         AngularGrid ... Lebedev-110
Angular grid pruning method      GridPruning ... 3 (G Style)
Weight generation scheme         WeightScheme... Becke
Basis function cutoff            BFCut       ...    1.0000e-12
Integration weight cutoff        WCut        ...    1.0000e-14
Grids for H and He will be reduced by one unit

# of grid points (after initial pruning)     ...   5754 (   0.0 sec)
# of grid points (after weights+screening)   ...   5632 (   0.0 sec)
nearest neighbour list constructed           ...    0.0 sec
Grid point re-assignment to atoms done       ...    0.0 sec
Grid point division into batches done        ...    0.0 sec
Reduced shell lists constructed in    0.0 sec

Total number of grid points                  ...     5632
Total number of batches                      ...       90
Average number of points per batch           ...       62
Average number of grid points per atom       ...     1126
Average number of shells per batch           ...    16.20 (89.99%)
Average number of basis functions per batch  ...    30.88 (90.82%)
Average number of large shells per batch     ...    15.27 (94.30%)
Average number of large basis fcns per batch ...    28.84 (93.38%)
Maximum spatial batch extension              ...  25.60, 25.60, 20.11 au
Average spatial batch extension              ...   5.15,  4.90,  4.64 au

Time for grid setup =    0.580 sec

--------------
SCF ITERATIONS
--------------
ITER       Energy         Delta-E        Max-DP      RMS-DP      [F,P]     Damp
               ***  Starting incremental Fock matrix formation  ***
  0   -114.8930476526   0.000000000000 0.00027173  0.00002328  0.0015716 0.7000
  1   -114.8930513682  -0.000003715597 0.00025673  0.00002233  0.0013044 0.7000
                               ***Turning on DIIS***
  2   -114.8930543912  -0.000003023045 0.00067854  0.00006117  0.0010469 0.0000
  3   -114.8930626388  -0.000008247531 0.00048729  0.00003320  0.0003488 0.0000
  4   -114.8930642893  -0.000001650539 0.00026343  0.00001573  0.0001803 0.0000
  5   -114.8930647177  -0.000000428393 0.00038766  0.00002313  0.0001300 0.0000
  6   -114.8930652495  -0.000000531797 0.00040176  0.00002115  0.0001353 0.0000
  7   -114.8930656866  -0.000000437145 0.00048591  0.00002503  0.0001325 0.0000
  8   -114.8930661762  -0.000000489589 0.00077806  0.00003958  0.0001262 0.0000
  9   -114.8930668916  -0.000000715371 0.00213967  0.00010915  0.0001155 0.0000
 10   -114.8930684958  -0.000001604210 0.00333392  0.00017182  0.0000836 0.0000
 11   -114.8930699315  -0.000001435639 0.00105964  0.00005524  0.0000322 0.0000
 12   -114.8930701123  -0.000000180844 0.00068045  0.00003558  0.0000197 0.0000
 13   -114.8930701570  -0.000000044721 0.00020984  0.00001102  0.0000036 0.0000
 14   -114.8930701593  -0.000000002257 0.00001905  0.00000102  0.0000011 0.0000
 15   -114.8930701593  -0.000000000054 0.00000330  0.00000019  0.0000004 0.0000
 16   -114.8930701593  -0.000000000004 0.00000120  0.00000006  0.0000002 0.0000
 17   -114.8930701593   0.000000000002 0.00000237  0.00000013  0.0000001 0.0000
                 **** Energy Check signals convergence ****

 Fermi smearing  (ALPHA): E(HOMO(Eh)) = -0.325917 MUE = -0.107946 gap=   9.403 eV
 Fermi smearing   (BETA): E(HOMO(Eh)) = -0.259492 MUE = -0.194942 gap=   3.513 eV

N_FOD(alpha) =  0.000000
 N_FOD(beta) =  0.000075
       N_FOD =  0.000075

               *****************************************************
               *                     SUCCESS                       *
               *           SCF CONVERGED AFTER  18 CYCLES          *
               *****************************************************

Setting up the final grid:

General Integration Accuracy     IntAcc      ...  4.670
Radial Grid Type                 RadialGrid  ... Gauss-Chebyshev
Angular Grid (max. acc.)         AngularGrid ... Lebedev-302
Angular grid pruning method      GridPruning ... 3 (G Style)
Weight generation scheme         WeightScheme... Becke
Basis function cutoff            BFCut       ...    1.0000e-12
Integration weight cutoff        WCut        ...    1.0000e-14
Grids for H and He will be reduced by one unit

# of grid points (after initial pruning)     ...  22606 (   0.0 sec)
# of grid points (after weights+screening)   ...  22056 (   0.0 sec)
nearest neighbour list constructed           ...    0.0 sec
Grid point re-assignment to atoms done       ...    0.0 sec
Grid point division into batches done        ...    0.1 sec
Reduced shell lists constructed in    0.1 sec

Total number of grid points                  ...    22056
Total number of batches                      ...      348
Average number of points per batch           ...       63
Average number of grid points per atom       ...     4411
Average number of shells per batch           ...    15.04 (83.57%)
Average number of basis functions per batch  ...    28.60 (84.11%)
Average number of large shells per batch     ...    13.91 (92.44%)
Average number of large basis fcns per batch ...    26.30 (91.95%)
Maximum spatial batch extension              ...  20.64, 20.70, 20.64 au
Average spatial batch extension              ...   3.15,  3.17,  3.22 au

Final grid set up in    1.2 sec
Final integration                            ... done (  19.9 sec)
Change in XC energy                          ...    -0.000053923
Integrated number of electrons               ...    16.999985273
Previous integrated no of electrons          ...    17.000511449
Total Energy       :         -114.89312408 Eh           -3126.40085 eV
[...]
 Energy Change          TolE            ....  1.000e-09 Eh
 1-El. energy change                    ....  1.000e-06 Eh
 DIIS Error             TolErr          ....  1.000e-08


Diagonalization of the overlap matrix:
Smallest eigenvalue                        ... 1.265e-02
Time for diagonalization                   ...    0.000 sec
Threshold for overlap eigenvalues          ... 1.000e-08
Number of eigenvalues below threshold      ... 0
Time for construction of square roots      ...    1.734 sec
Total time needed                          ...    1.735 sec

---------------------
INITIAL GUESS: MOREAD
---------------------
Guess MOs are being read from file: orca1.gbw
Input Geometry matches current geometry (good)
Input basis set matches current basis set (good)
MOs were renormalized
MOs were reorthogonalized (Cholesky)
                      ------------------
                      INITIAL GUESS DONE (   0.0 sec)
                      ------------------
-------------------
DFT GRID GENERATION
-------------------

General Integration Accuracy     IntAcc      ...  4.340
Radial Grid Type                 RadialGrid  ... Gauss-Chebyshev
Angular Grid (max. acc.)         AngularGrid ... Lebedev-110
Angular grid pruning method      GridPruning ... 3 (G Style)
Weight generation scheme         WeightScheme... Becke
Basis function cutoff            BFCut       ...    1.0000e-12
Integration weight cutoff        WCut        ...    1.0000e-14
Grids for H and He will be reduced by one unit

# of grid points (after initial pruning)     ...   5754 (   0.0 sec)
# of grid points (after weights+screening)   ...   5630 (   0.0 sec)
nearest neighbour list constructed           ...    0.0 sec
Grid point re-assignment to atoms done       ...    0.0 sec
Grid point division into batches done        ...    0.0 sec
Reduced shell lists constructed in    0.0 sec

Total number of grid points                  ...     5630
Total number of batches                      ...       91
Average number of points per batch           ...       61
Average number of grid points per atom       ...     1126
Average number of shells per batch           ...    16.16 (89.79%)
Average number of basis functions per batch  ...    30.86 (90.76%)
Average number of large shells per batch     ...    15.29 (94.62%)
Average number of large basis fcns per batch ...    28.90 (93.66%)
Maximum spatial batch extension              ...  25.60, 25.60, 20.08 au
Average spatial batch extension              ...   5.11,  4.94,  4.66 au

Time for grid setup =    0.612 sec

--------------
SCF ITERATIONS
--------------
ITER       Energy         Delta-E        Max-DP      RMS-DP      [F,P]     Damp
               ***  Starting incremental Fock matrix formation  ***
  0   -114.8931816849   0.000000000000 0.00000745  0.00000092  0.0000496 0.7000
  1   -114.8931816904  -0.000000005562 0.00000679  0.00000087  0.0000383 0.7000
                               ***Turning on DIIS***
  2   -114.8931816948  -0.000000004385 0.00002293  0.00000267  0.0000299 0.0000
  3   -114.8931821458  -0.000000451037 0.00001177  0.00000084  0.0000069 0.0000
  4   -114.8931821468  -0.000000000912 0.00000962  0.00000053  0.0000041 0.0000
  5   -114.8931821471  -0.000000000366 0.00001017  0.00000058  0.0000039 0.0000
  6   -114.8931821475  -0.000000000340 0.00001282  0.00000073  0.0000037 0.0000
  7   -114.8931821478  -0.000000000371 0.00001297  0.00000071  0.0000034 0.0000
  8   -114.8931821482  -0.000000000334 0.00001460  0.00000078  0.0000031 0.0000
  9   -114.8931821485  -0.000000000335 0.00004240  0.00000229  0.0000028 0.0000
 10   -114.8931821493  -0.000000000812 0.00007344  0.00000392  0.0000020 0.0000
                 **** Energy Check signals convergence ****

 Fermi smearing  (ALPHA): E(HOMO(Eh)) = -0.325610 MUE = -0.108081 gap=   9.404 eV
 Fermi smearing   (BETA): E(HOMO(Eh)) = -0.259758 MUE = -0.194712 gap=   3.540 eV

N_FOD(alpha) =  0.000000
 N_FOD(beta) =  0.000069
       N_FOD =  0.000069

               *****************************************************
               *                     SUCCESS                       *
               *           SCF CONVERGED AFTER  11 CYCLES          *
               *****************************************************

Setting up the final grid:

General Integration Accuracy     IntAcc      ...  4.670
Radial Grid Type                 RadialGrid  ... Gauss-Chebyshev
Angular Grid (max. acc.)         AngularGrid ... Lebedev-302
Angular grid pruning method      GridPruning ... 3 (G Style)
Weight generation scheme         WeightScheme... Becke
Basis function cutoff            BFCut       ...    1.0000e-12
Integration weight cutoff        WCut        ...    1.0000e-14
Grids for H and He will be reduced by one unit

# of grid points (after initial pruning)     ...  22606 (   0.0 sec)
# of grid points (after weights+screening)   ...  22059 (   0.0 sec)
nearest neighbour list constructed           ...    0.0 sec
Grid point re-assignment to atoms done       ...    0.0 sec
Grid point division into batches done        ...    0.1 sec
Reduced shell lists constructed in    0.1 sec

Total number of grid points                  ...    22059
Total number of batches                      ...      348
Average number of points per batch           ...       63
Average number of grid points per atom       ...     4412
Average number of shells per batch           ...    15.02 (83.46%)
Average number of basis functions per batch  ...    28.52 (83.88%)
Average number of large shells per batch     ...    13.94 (92.77%)
Average number of large basis fcns per batch ...    26.33 (92.33%)
Maximum spatial batch extension              ...  20.64, 20.65, 17.61 au
Average spatial batch extension              ...   3.18,  3.17,  3.22 au

Final grid set up in    1.5 sec
Final integration                            ... done (   9.9 sec)
Change in XC energy                          ...    -0.000054460
Integrated number of electrons               ...    16.999983930
Previous integrated no of electrons          ...    17.000397011

----------------
TOTAL SCF ENERGY
----------------

Total Energy       :         -114.89323661 Eh           -3126.40391 eV

Components:
Nuclear Repulsion  :           34.36866825 Eh             935.21901 eV
Electronic Energy  :         -149.26190486 Eh           -4061.62292 eV
One Electron Energy:         -224.22512425 Eh           -6101.47582 eV
Two Electron Energy:           74.96321939 Eh            2039.85290 eV

Virial components:
Potential Energy   :         -228.98087758 Eh           -6230.88645 eV
Kinetic Energy     :          114.08764097 Eh            3104.48254 eV
Virial Ratio       :            2.00706120


DFT components:
N(Alpha)           :        8.999991395935 electrons
N(Beta)            :        7.999992534068 electrons
N(Total)           :       16.999983930003 electrons
E(X)               :      -11.455720277419 Eh       
E(C)               :       -0.661993413269 Eh       
E(XC)              :      -12.117713690688 Eh       
DFET-embed. en.    :        0.000000000000 Eh       

---------------
SCF CONVERGENCE
---------------

  Last Energy change         ...   -7.8106e-10  Tolerance :   1.0000e-09
  Last MAX-Density change    ...    3.3491e-05  Tolerance :   1.0000e-08
  Last RMS-Density change    ...    1.7881e-06  Tolerance :   1.0000e-09
  Last DIIS Error            ...    6.6911e-07  Tolerance :   1.0000e-08

             **** THE GBW FILE WAS UPDATED (orca1.gbw) ****
             **** DENSITY FILE WAS UPDATED (orca1.scfp) ****
             **** ENERGY FILE WAS UPDATED (orca1.en.tmp) ****
             **** THE GBW FILE WAS UPDATED (orca1.gbw) ****
             **** DENSITY FILE WAS UPDATED (orca1.scfp) ****
----------------
ORBITAL ENERGIES
----------------
                 SPIN UP ORBITALS
  NO   OCC          E(Eh)            E(eV) 
   0   1.0000     -19.168414      -521.5991 
   1   1.0000     -10.235564      -278.5239 
   2   1.0000      -1.012230       -27.5442 
   3   1.0000      -0.660414       -17.9708 
   4   1.0000      -0.482374       -13.1261 
   5   1.0000      -0.459648       -12.5077 
   6   1.0000      -0.432577       -11.7710 
   7   1.0000      -0.325610        -8.8603 
   8   1.0000      -0.280875        -7.6430 
   9   0.0000       0.064712         1.7609 
  10   0.0000       0.116116         3.1597 
  11   0.0000       0.130381         3.5479 
  12   0.0000       0.164484         4.4758 
  13   0.0000       0.429163        11.6781 
  14   0.0000       0.474691        12.9170 
  15   0.0000       0.501683        13.6515 
  16   0.0000       0.635957        17.3053 
  17   0.0000       0.651196        17.7199 
  18   0.0000       0.658832        17.9277 
  19   0.0000       0.670093        18.2342 
  20   0.0000       0.919438        25.0192 
  21   0.0000       0.950105        25.8537 
  22   0.0000       1.015195        27.6249 
  23   0.0000       1.379894        37.5488 
  24   0.0000       1.601076        43.5675 
  25   0.0000       1.610979        43.8370 
  26   0.0000       2.014911        54.8285 
  27   0.0000       2.041303        55.5467 
  28   0.0000       2.098970        57.1159 
  29   0.0000       2.601742        70.7970 
  30   0.0000       2.606214        70.9187 
  31   0.0000       2.896344        78.8135 
  32   0.0000       2.946591        80.1808 
  33   0.0000       3.359364        91.4129 

                 SPIN DOWN ORBITALS
  NO   OCC          E(Eh)            E(eV) 
   0   1.0000     -19.144893      -520.9590 
   1   1.0000     -10.236387      -278.5463 
   2   1.0000      -0.961338       -26.1593 
   3   1.0000      -0.642379       -17.4800 
   4   1.0000      -0.453937       -12.3523 
   5   1.0000      -0.438310       -11.9270 
   6   1.0000      -0.410427       -11.1683 
   7   1.0000      -0.259758        -7.0684 
   8   0.0000      -0.129665        -3.5284 
   9   0.0000       0.067264         1.8304 
  10   0.0000       0.123699         3.3660 
  11   0.0000       0.131352         3.5743 
  12   0.0000       0.173498         4.7211 
  13   0.0000       0.442085        12.0297 
  14   0.0000       0.478539        13.0217 
  15   0.0000       0.508696        13.8423 
  16   0.0000       0.644227        17.5303 
  17   0.0000       0.653217        17.7749 
  18   0.0000       0.659305        17.9406 
  19   0.0000       0.681971        18.5574 
  20   0.0000       0.936434        25.4817 
  21   0.0000       1.029045        28.0017 
  22   0.0000       1.034835        28.1593 
  23   0.0000       1.402498        38.1639 
  24   0.0000       1.610535        43.8249 
  25   0.0000       1.613009        43.8922 
  26   0.0000       2.016968        54.8845 
  27   0.0000       2.046462        55.6871 
  28   0.0000       2.109166        57.3933 
  29   0.0000       2.673371        72.7461 
  30   0.0000       2.685221        73.0686 
  31   0.0000       2.957324        80.4729 
  32   0.0000       2.960930        80.5710 
  33   0.0000       3.387576        92.1806 

                    ********************************
                    * MULLIKEN POPULATION ANALYSIS *
                    ********************************

------------------------------------------
FOD BASED MULLIKEN REDUCED ORBITAL CHARGES
------------------------------------------
  0 C s       :     0.000000  s :     0.000000
      pz      :     0.000001  p :     0.000001
      px      :     0.000000
      py      :     0.000000
      dz2     :     0.000000  d :     0.000001
      dxz     :     0.000000
      dyz     :     0.000000
      dx2y2   :     0.000000
      dxy     :     0.000000
  1 O s       :     0.000000  s :     0.000000
      pz      :     0.000026  p :     0.000056
      px      :     0.000004
      py      :     0.000026
      dz2     :    -0.000000  d :     0.000000
      dxz     :    -0.000000
      dyz     :     0.000000
      dx2y2   :     0.000000
      dxy     :    -0.000000
  2 H s       :     0.000004  s :     0.000004
  3 H s       :     0.000004  s :     0.000004
  4 H s       :     0.000004  s :     0.000004


                     *******************************
                     * LOEWDIN POPULATION ANALYSIS *
                     *******************************

-------------------------------------------
LOEWDIN ATOMIC CHARGES AND SPIN POPULATIONS
-------------------------------------------
   0 C :   -0.224085   -0.015112
   1 O :   -0.120275    0.883783
   2 H :    0.099167    0.016357
   3 H :    0.100666    0.019514
   4 H :    0.144528    0.095457

----------------------------------------------------
LOEWDIN REDUCED ORBITAL CHARGES AND SPIN POPULATIONS
----------------------------------------------------
CHARGE
  0 C s       :     2.966313  s :     2.966313
      pz      :     1.109859  p :     3.119089
      px      :     0.908503
      py      :     1.100727
      dz2     :     0.030661  d :     0.138683
      dxz     :     0.033883
      dyz     :     0.011934
      dx2y2   :     0.028954
      dxy     :     0.033252
  1 O s       :     3.670573  s :     3.670573
      pz      :     1.734856  p :     4.429800
      px      :     1.408648
      py      :     1.286297
      dz2     :     0.002770  d :     0.019902
      dxz     :     0.004437
      dyz     :     0.000514
      dx2y2   :     0.007193
      dxy     :     0.004988
  2 H s       :     0.900833  s :     0.900833
  3 H s       :     0.899334  s :     0.899334
  4 H s       :     0.855472  s :     0.855472

SPIN
  0 C s       :    -0.007591  s :    -0.007591
      pz      :    -0.005241  p :    -0.030412
      px      :    -0.020455
      py      :    -0.004716
      dz2     :     0.001949  d :     0.022891
      dxz     :     0.002720
      dyz     :     0.000331
      dx2y2   :     0.003124
      dxy     :     0.014768
  1 O s       :     0.011176  s :     0.011176
      pz      :     0.153303  p :     0.872794
      px      :     0.112671
      py      :     0.606820
      dz2     :    -0.000062  d :    -0.000187
      dxz     :    -0.000046
      dyz     :     0.000052
      dx2y2   :    -0.000078
      dxy     :    -0.000053
  2 H s       :     0.016357  s :     0.016357
  3 H s       :     0.019514  s :     0.019514
  4 H s       :     0.095457  s :     0.095457


                      *****************************
                      * MAYER POPULATION ANALYSIS *
                      *****************************

  NA   - Mulliken gross atomic population
  ZA   - Total nuclear charge
  QA   - Mulliken gross atomic charge
  VA   - Mayer's total valence
  BVA  - Mayer's bonded valence
  FA   - Mayer's free valence

  ATOM       NA         ZA         QA         VA         BVA        FA
  0 C      6.1124     6.0000    -0.1124     3.9501     3.9469     0.0032
  1 O      8.2277     8.0000    -0.2277     2.0672     1.3087     0.7585
  2 H      0.8988     1.0000     0.1012     0.9416     0.9411     0.0004
  3 H      0.8988     1.0000     0.1012     0.9419     0.9413     0.0006
  4 H      0.8624     1.0000     0.1376     0.9519     0.9375     0.0144

  Mayer bond orders larger than 0.100000
B(  0-C ,  1-O ) :   1.1880 B(  0-C ,  2-H ) :   0.9319 B(  0-C ,  3-H ) :   0.9308 
B(  0-C ,  4-H ) :   0.8962 

-------
TIMINGS
-------

Total SCF time: 0 days 0 hours 4 min 16 sec 

Total time                  ....     256.536 sec
Sum of individual times     ....     189.809 sec  ( 74.0%)

Fock matrix formation       ....     165.422 sec  ( 64.5%)
  XC integration            ....      86.599 sec  ( 52.4% of F)
    Basis function eval.    ....       0.128 sec  (  0.1% of XC)
    Density eval.           ....       0.092 sec  (  0.1% of XC)
    XC-Functional eval.     ....       0.126 sec  (  0.1% of XC)
    XC-Potential eval.      ....       0.091 sec  (  0.1% of XC)
Diagonalization             ....       0.068 sec  (  0.0%)
Density matrix formation    ....       8.700 sec  (  3.4%)
Population analysis         ....       7.646 sec  (  3.0%)
Initial guess               ....       0.003 sec  (  0.0%)
Orbital Transformation      ....       0.000 sec  (  0.0%)
Orbital Orthonormalization  ....       0.000 sec  (  0.0%)
DIIS solution               ....       5.894 sec  (  2.3%)
Grid generation             ....       2.076 sec  (  0.8%)


-------------------------------------------------------------------------------
                          DFT DISPERSION CORRECTION                            
                                                                               
                              DFTD3 V3.1  Rev 1                                
                          USING Becke-Johnson damping                          
-------------------------------------------------------------------------------
The B3LYP functional is recognized
Active option DFTDOPT                   ...         4   

molecular C6(AA) [au] = 171.073800 


            DFT-D V3
 parameters
 s6 scaling factor         :     1.0000 
 a1 scaling factor         :     0.3981 
 s8 scaling factor         :     1.9889 
 a2 scaling factor         :     4.4211 
 ad hoc parameters k1-k3   :    16.0000     1.3333    -4.0000 

 Edisp/kcal,au: -1.522331884825  -0.002425990021 
 E6   /kcal   :  -0.780950484 
 E8   /kcal   :  -0.741381401 
 % E8         :  48.700379204 

-------------------------   ----------------
Dispersion correction           -0.002425990
-------------------------   ----------------


-------------------------   --------------------
FINAL SINGLE POINT ENERGY      -114.895662599897
-------------------------   --------------------

                                *** OPTIMIZATION RUN DONE ***

                            ***************************************
                            *     ORCA property calculations      *
                            ***************************************

                                    ---------------------
                                    Active property flags
                                    ---------------------
   (+) Dipole Moment


------------------------------------------------------------------------------
                       ORCA ELECTRIC PROPERTIES CALCULATION
------------------------------------------------------------------------------

Dipole Moment Calculation                       ... on
Quadrupole Moment Calculation                   ... off
Polarizability Calculation                      ... off
GBWName                                         ... orca1.gbw
Electron density file                           ... orca1.scfp
The origin for moment calculation is the CENTER OF MASS  = ( 0.573986, -0.339427 -0.322249)

-------------
DIPOLE MOMENT
-------------
                                X             Y             Z
Electronic contribution:      2.10573      -0.49204      -0.46007
Nuclear contribution   :     -2.86733       0.59450       0.57921
                        -----------------------------------------
Total Dipole Moment    :     -0.76160       0.10246       0.11914
                        -----------------------------------------
Magnitude (a.u.)       :      0.77764
Magnitude (Debye)      :      1.97660



--------------------
Rotational spectrum 
--------------------
 
Rotational constants in cm-1:     5.161710     0.938211     0.931634 
Rotational constants in MHz : 154744.166308 28126.861019 27929.670584 

 Dipole components along the rotational axes: 
x,y,z [a.u.] :     0.770677    -0.007795     0.103537 
x,y,z [Debye]:     1.958906    -0.019813     0.263170 

 

Timings for individual modules:

Sum of individual times         ...     3898.206 sec (=  64.970 min)
GTO integral calculation        ...       69.415 sec (=   1.157 min)   1.8 %
SCF iterations                  ...     3769.361 sec (=  62.823 min)  96.7 %
SCF Gradient evaluation         ...       23.156 sec (=   0.386 min)   0.6 %
Geometry relaxation             ...       36.274 sec (=   0.605 min)   0.9 %
                             ****ORCA TERMINATED NORMALLY****
TOTAL RUN TIME: 0 days 1 hours 7 minutes 7 seconds 607 msec
