
                                 *****************
                                 * O   R   C   A *
                                 *****************

           --- An Ab Initio, DFT and Semiempirical electronic structure package ---

                  #######################################################
                  #                        -***-                        #
                  #          Department of theory and spectroscopy      #
                  #               Directorship: Frank Neese             #
                  #        Max Planck Institute fuer Kohlenforschung    #
                  #                Kaiser Wilhelm Platz 1               #
                  #                 D-45470 Muelheim/Ruhr               #
                  #                      Germany                        #
                  #                                                     #
                  #                  All rights reserved                #
                  #                        -***-                        #
                  #######################################################


                         Program Version 4.2.1 -  RELEASE  -


 With contributions from (in alphabetic order):
   Daniel Aravena         : Magnetic Suceptibility
   Michael Atanasov       : Ab Initio Ligand Field Theory (pilot matlab implementation)
   Alexander A. Auer      : GIAO ZORA, VPT2
   Ute Becker             : Parallelization
   Giovanni Bistoni       : ED, misc. LED, open-shell LED, HFLD
   Martin Brehm           : Molecular dynamics
   Dmytro Bykov           : SCF Hessian
   Vijay G. Chilkuri      : MRCI spin determinant printing, contributions to CSF-ICE
   Dipayan Datta          : RHF DLPNO-CCSD density
   Achintya Kumar Dutta   : EOM-CC, STEOM-CC
   Dmitry Ganyushin       : Spin-Orbit,Spin-Spin,Magnetic field MRCI
   Miquel Garcia          : C-PCM Hessian, Gaussian charge scheme
   Yang Guo               : DLPNO-NEVPT2, CIM, IAO-localization
   Andreas Hansen         : Spin unrestricted coupled pair/coupled cluster methods
   Benjamin Helmich-Paris : CASSCF linear response (MC-RPA)
   Lee Huntington         : MR-EOM, pCC
   Robert Izsak           : Overlap fitted RIJCOSX, COSX-SCS-MP3, EOM
   Christian Kollmar      : KDIIS, OOCD, Brueckner-CCSD(T), CCSD density
   Simone Kossmann        : Meta GGA functionals, TD-DFT gradient, OOMP2, MP2 Hessian
   Martin Krupicka        : AUTO-CI
   Lucas Lang             : DCDCAS
   Dagmar Lenk            : GEPOL surface, SMD
   Dimitrios Liakos       : Extrapolation schemes; Compound Job, initial MDCI parallelization
   Dimitrios Manganas     : Further ROCIS development; embedding schemes
   Dimitrios Pantazis     : SARC Basis sets
   Taras Petrenko         : DFT Hessian,TD-DFT gradient, ASA, ECA, R-Raman, ABS, FL, XAS/XES, NRVS
   Peter Pinski           : DLPNO-MP2, DLPNO-MP2 Gradient
   Christoph Reimann      : Effective Core Potentials
   Marius Retegan         : Local ZFS, SOC
   Christoph Riplinger    : Optimizer, TS searches, QM/MM, DLPNO-CCSD(T), (RO)-DLPNO pert. Triples
   Tobias Risthaus        : Range-separated hybrids, TD-DFT gradient, RPA, STAB
   Michael Roemelt        : Original ROCIS implementation
   Masaaki Saitow         : Open-shell DLPNO-CCSD energy and density
   Barbara Sandhoefer     : DKH picture change effects
   Avijit Sen             : IP-ROCIS
   Kantharuban Sivalingam : CASSCF convergence, NEVPT2, FIC-MRCI
   Bernardo de Souza      : ESD, SOC TD-DFT
   Georgi Stoychev        : AutoAux, RI-MP2 NMR
   Willem Van den Heuvel  : Paramagnetic NMR
   Boris Wezisla          : Elementary symmetry handling
   Frank Wennmohs         : Technical directorship


 We gratefully acknowledge several colleagues who have allowed us to
 interface, adapt or use parts of their codes:
   Stefan Grimme, W. Hujo, H. Kruse,             : VdW corrections, initial TS optimization,
                  C. Bannwarth                     DFT functionals, gCP, sTDA/sTD-DF
   Ed Valeev, F. Pavosevic, A. Kumar             : LibInt (2-el integral package), F12 methods
   Garnet Chan, S. Sharma, J. Yang, R. Olivares  : DMRG
   Ulf Ekstrom                                   : XCFun DFT Library
   Mihaly Kallay                                 : mrcc  (arbitrary order and MRCC methods)
   Andreas Klamt, Michael Diedenhofen            : otool_cosmo (COSMO solvation model)
   Jiri Pittner, Ondrej Demel                    : Mk-CCSD
   Frank Weinhold                                : gennbo (NPA and NBO analysis)
   Christopher J. Cramer and Donald G. Truhlar   : smd solvation model
   Lars Goerigk                                  : TD-DFT with DH, B97 family of functionals
   V. Asgeirsson, H. Jonsson                     : NEB implementation
   FAccTs GmbH                                   : IRC, NEB, NEB-TS, Multilevel, MM, QM/MM, CI optimization
   S Lehtola, MJT Oliveira, MAL Marques          : LibXC Library


 Your calculation uses the libint2 library for the computation of 2-el integrals
 For citations please refer to: http://libint.valeyev.net

 Your ORCA version has been built with support for libXC version: 4.2.3
 For citations please refer to: https://tddft.org/programs/libxc/

 This ORCA versions uses:
   CBLAS   interface :  Fast vector & matrix operations
   LAPACKE interface :  Fast linear algebra routines
   SCALAPACK package :  Parallel linear algebra routines


Your calculation utilizes the atom-pairwise dispersion correction
with the Becke-Johnson damping scheme (D3BJ)
Cite in your paper:
S.Grimme, S.Ehrlich, L.Goerigk, J Comput Chem, (2011), 32, 1456–1465 
S.Grimme, J.Antony, S.Ehrlich and H.Krieg, J.Chem.Phys., 132, (2010), 154104 
   

----- Orbital basis set information -----
Your calculation utilizes the basis: def2-SV(P)
   F. Weigend and R. Ahlrichs, Phys. Chem. Chem. Phys. 7, 3297 (2005).

----- AuxJ basis set information -----
Your calculation utilizes the auxiliary basis: def2/J
   F. Weigend, Phys. Chem. Chem. Phys. 8, 1057 (2006).

================================================================================
                                        WARNINGS
                       Please study these warnings very carefully!
================================================================================


WARNING: Geometry Optimization
  ===> : Switching off AutoStart
         For restart on a previous wavefunction, please use MOREAD

INFO   : the flag for use of LIBINT has been found!

================================================================================
                                       INPUT FILE
================================================================================
NAME = orca0.inp
|  1> ! UKS B3LYP def2-SV(P) def2/J D3BJ Opt
|  2> %scf Convergence VeryTight
|  3> SmearTemp 2000
|  4> maxiter 500
|  5> end
|  6> *xyz 0 2
|  7> C 0.072221 -0.032482 -0.346561
|  8> C 0.505744 1.301146 0.180439
|  9> C -1.411939 -0.161291 -0.122208
| 10> C 0.859189 -1.191009 0.177817
| 11> H -0.337583 1.906506 0.599227
| 12> H 0.923668 1.947962 -0.632595
| 13> H 1.273966 1.24313 0.964704
| 14> H -1.690969 -0.415783 0.909117
| 15> H -1.839215 0.850244 -0.33206
| 16> H -1.879757 -0.839576 -0.877447
| 17> H 0.274192 -1.913705 0.771976
| 18> H 1.724278 -0.894638 0.817025
| 19> H 1.313489 -1.79121 -0.651259
| 20> *
| 21> 
| 22>                          ****END OF INPUT****
================================================================================

                       *****************************
                       * Geometry Optimization Run *
                       *****************************

Geometry optimization settings:
Update method            Update   .... BFGS
Choice of coordinates    CoordSys .... Z-matrix Internals
Initial Hessian          InHess   .... Almoef's Model

Convergence Tolerances:
Energy Change            TolE     ....  5.0000e-06 Eh
Max. Gradient            TolMAXG  ....  3.0000e-04 Eh/bohr
RMS Gradient             TolRMSG  ....  1.0000e-04 Eh/bohr
Max. Displacement        TolMAXD  ....  4.0000e-03 bohr
RMS Displacement         TolRMSD  ....  2.0000e-03 bohr
Strict Convergence                ....  False
------------------------------------------------------------------------------
                        ORCA OPTIMIZATION COORDINATE SETUP
------------------------------------------------------------------------------

The optimization will be done in new redundant internal coordinates
Making redundant internal coordinates   ...  (new redundants) done
Evaluating the initial hessian          ...  (Almloef) done
Evaluating the coordinates              ...  done
Calculating the B-matrix                .... done
Calculating the G-matrix                .... done
Diagonalizing the G-matrix              .... done
The first mode is                       ....   18
The number of degrees of freedom        ....   33

    -----------------------------------------------------------------
                    Redundant Internal Coordinates


    -----------------------------------------------------------------
         Definition                    Initial Value    Approx d2E/dq
    -----------------------------------------------------------------
      1. B(C   1,C   0)                  1.4981         0.420057   
      2. B(C   2,C   0)                  1.5065         0.407202   
      3. B(C   3,C   0)                  1.4955         0.424076   
      4. B(H   4,C   1)                  1.1194         0.323240   
      5. B(H   5,C   1)                  1.1198         0.322705   
      6. B(H   6,C   1)                  1.0994         0.347923   
      7. B(H   7,C   2)                  1.0983         0.349290   
      8. B(H   8,C   2)                  1.1179         0.324964   
      9. B(H   9,C   2)                  1.1177         0.325229   
     10. B(H  10,C   3)                  1.1034         0.342777   
     11. B(H  11,C   3)                  1.1157         0.327650   
     12. B(H  12,C   3)                  1.1198         0.322736   
     13. A(C   1,C   0,C   3)          114.4570         0.378934   
     14. A(C   2,C   0,C   3)          113.5757         0.376901   
     15. A(C   1,C   0,C   2)          107.9878         0.376281   
     16. A(H   4,C   1,H   5)          103.9114         0.281138   
     17. A(H   5,C   1,H   6)          106.7159         0.284365   
     18. A(H   4,C   1,H   6)          106.7442         0.284438   
     19. A(C   0,C   1,H   4)          113.2672         0.324814   
     20. A(C   0,C   1,H   5)          111.5174         0.324725   
     21. A(C   0,C   1,H   6)          113.9661         0.328774   
     22. A(H   7,C   2,H   9)          112.8016         0.284884   
     23. A(C   0,C   2,H   9)          111.3208         0.323486   
     24. A(H   7,C   2,H   8)          106.7876         0.284848   
     25. A(C   0,C   2,H   8)          105.7359         0.323443   
     26. A(H   8,C   2,H   9)          105.2054         0.281709   
     27. A(C   0,C   2,H   7)          114.2007         0.327305   
     28. A(H  11,C   3,H  12)          104.5948         0.281732   
     29. A(H  10,C   3,H  12)          105.2305         0.283712   
     30. A(C   0,C   3,H  12)          111.6600         0.325239   
     31. A(H  10,C   3,H  11)          106.0549         0.284379   
     32. A(C   0,C   3,H  11)          113.7739         0.326049   
     33. A(C   0,C   3,H  10)          114.6584         0.328483   
     34. D(H   6,C   1,C   0,C   2)    121.3536         0.013047   
     35. D(H   4,C   1,C   0,C   2)     -0.9450         0.013047   
     36. D(H   6,C   1,C   0,C   3)     -6.2097         0.013047   
     37. D(H   5,C   1,C   0,C   2)   -117.7425         0.013047   
     38. D(H   4,C   1,C   0,C   3)   -128.5083         0.013047   
     39. D(H   5,C   1,C   0,C   3)    114.6942         0.013047   
     40. D(H   7,C   2,C   0,C   1)    -78.2189         0.012287   
     41. D(H   9,C   2,C   0,C   3)    -79.3113         0.012287   
     42. D(H   9,C   2,C   0,C   1)    152.6194         0.012287   
     43. D(H   8,C   2,C   0,C   3)    166.9551         0.012287   
     44. D(H   8,C   2,C   0,C   1)     38.8858         0.012287   
     45. D(H   7,C   2,C   0,C   3)     49.8504         0.012287   
     46. D(H  11,C   3,C   0,C   1)     -5.4231         0.013291   
     47. D(H  10,C   3,C   0,C   2)     -7.7507         0.013291   
     48. D(H  10,C   3,C   0,C   1)    116.9038         0.013291   
     49. D(H  12,C   3,C   0,C   2)    111.8095         0.013291   
     50. D(H  12,C   3,C   0,C   1)   -123.5360         0.013291   
     51. D(H  11,C   3,C   0,C   2)   -130.0776         0.013291   
    -----------------------------------------------------------------

Number of atoms                         .... 13
Number of degrees of freedom            .... 51

         *************************************************************
         *                GEOMETRY OPTIMIZATION CYCLE   1            *
         *************************************************************
---------------------------------
CARTESIAN COORDINATES (ANGSTROEM)
---------------------------------
  C      0.072221   -0.032482   -0.346561
  C      0.505744    1.301146    0.180439
  C     -1.411939   -0.161291   -0.122208
  C      0.859189   -1.191009    0.177817
  H     -0.337583    1.906506    0.599227
  H      0.923668    1.947962   -0.632595
  H      1.273966    1.243130    0.964704
  H     -1.690969   -0.415783    0.909117
  H     -1.839215    0.850244   -0.332060
  H     -1.879757   -0.839576   -0.877447
  H      0.274192   -1.913705    0.771976
  H      1.724278   -0.894638    0.817025
  H      1.313489   -1.791210   -0.651259

----------------------------
CARTESIAN COORDINATES (A.U.)
----------------------------
  NO LB      ZA    FRAG     MASS         X           Y           Z
   0 C     6.0000    0    12.011    0.136478   -0.061382   -0.654905
   1 C     6.0000    0    12.011    0.955718    2.458810    0.340980
   2 C     6.0000    0    12.011   -2.668178   -0.304796   -0.230940
   3 C     6.0000    0    12.011    1.623632   -2.250681    0.336025
   4 H     1.0000    0     1.008   -0.637939    3.602774    1.132375
   5 H     1.0000    0     1.008    1.745480    3.681115   -1.195431
   6 H     1.0000    0     1.008    2.407447    2.349175    1.823026
   7 H     1.0000    0     1.008   -3.195468   -0.785716    1.717982
   8 H     1.0000    0     1.008   -3.475613    1.606728   -0.627502
   9 H     1.0000    0     1.008   -3.552226   -1.586569   -1.658135
  10 H     1.0000    0     1.008    0.518148   -3.616378    1.458823
  11 H     1.0000    0     1.008    3.258413   -1.690621    1.543953
  12 H     1.0000    0     1.008    2.482134   -3.384896   -1.230701

--------------------------------
INTERNAL COORDINATES (ANGSTROEM)
--------------------------------
 C      0   0   0     0.000000000000     0.00000000     0.00000000
 C      1   0   0     1.498077045386     0.00000000     0.00000000
 C      1   2   0     1.506538062144   107.98780643     0.00000000
 C      1   2   3     1.495485115151   114.45698727   232.43668760
 H      2   1   3     1.119394723711   113.26722193   359.05499324
 H      2   1   3     1.119846280874   111.51741321   242.25751885
 H      2   1   3     1.099364583641   113.96610645   121.35358761
 H      3   1   2     1.098296487561   114.20067550   281.78111534
 H      3   1   2     1.117947091013   105.73593644    38.88580838
 H      3   1   2     1.117725444584   111.32076598   152.61938926
 H      4   1   2     1.103420099376   114.65835525   116.90379277
 H      4   1   2     1.115706778157   113.77394146   354.57691214
 H      4   1   2     1.119819960608   111.66001987   236.46400174

---------------------------
INTERNAL COORDINATES (A.U.)
---------------------------
 C      0   0   0     0.000000000000     0.00000000     0.00000000
 C      1   0   0     2.830955343294     0.00000000     0.00000000
 C      1   2   0     2.846944347781   107.98780643     0.00000000
 C      1   2   3     2.826057304990   114.45698727   232.43668760
 H      2   1   3     2.115349463571   113.26722193   359.05499324
 H      2   1   3     2.116202782943   111.51741321   242.25751885
 H      2   1   3     2.077497984415   113.96610645   121.35358761
 H      3   1   2     2.075479575338   114.20067550   281.78111534
 H      3   1   2     2.112613834229   105.73593644    38.88580838
 H      3   1   2     2.112194983179   111.32076598   152.61938926
 H      4   1   2     2.085161798484   114.65835525   116.90379277
 H      4   1   2     2.108380256477   113.77394146   354.57691214
 H      4   1   2     2.116153044848   111.66001987   236.46400174

---------------------
BASIS SET INFORMATION
---------------------
There are 2 groups of distinct atoms

 Group   1 Type C   : 7s4p1d contracted to 3s2p1d pattern {511/31/1}
 Group   2 Type H   : 4s contracted to 2s pattern {31}

Atom   0C    basis set group =>   1
Atom   1C    basis set group =>   1
Atom   2C    basis set group =>   1
Atom   3C    basis set group =>   1
Atom   4H    basis set group =>   2
Atom   5H    basis set group =>   2
Atom   6H    basis set group =>   2
Atom   7H    basis set group =>   2
Atom   8H    basis set group =>   2
Atom   9H    basis set group =>   2
Atom  10H    basis set group =>   2
Atom  11H    basis set group =>   2
Atom  12H    basis set group =>   2
---------------------------------
AUXILIARY/J BASIS SET INFORMATION
---------------------------------
There are 2 groups of distinct atoms

 Group   1 Type C   : 12s5p4d2f1g contracted to 6s4p3d1f1g pattern {711111/2111/211/2/1}
 Group   2 Type H   : 5s2p1d contracted to 3s1p1d pattern {311/2/1}

Atom   0C    basis set group =>   1
Atom   1C    basis set group =>   1
Atom   2C    basis set group =>   1
Atom   3C    basis set group =>   1
Atom   4H    basis set group =>   2
Atom   5H    basis set group =>   2
Atom   6H    basis set group =>   2
Atom   7H    basis set group =>   2
Atom   8H    basis set group =>   2
Atom   9H    basis set group =>   2
Atom  10H    basis set group =>   2
Atom  11H    basis set group =>   2
Atom  12H    basis set group =>   2
------------------------------------------------------------------------------
                           ORCA GTO INTEGRAL CALCULATION
------------------------------------------------------------------------------

                         BASIS SET STATISTICS AND STARTUP INFO

 # of primitive gaussian shells          ...   84
 # of primitive gaussian functions       ...  132
 # of contracted shells                  ...   42
 # of contracted basis functions         ...   74
 Highest angular momentum                ...    2
 Maximum contraction depth               ...    5
 Integral package used                   ... LIBINT
 Integral threshhold            Thresh   ...  1.000e-12
 Primitive cut-off              TCut     ...  1.000e-14


------------------------------ INTEGRAL EVALUATION ----------------------------


 * One electron integrals 
 Pre-screening matrix                    ... done
 Shell pair data                         ... done (   0.000 sec)

-------------------------------------------------------------------------------
                                 ORCA SCF
-------------------------------------------------------------------------------

------------
SCF SETTINGS
------------
Hamiltonian:
 Density Functional     Method          .... DFT(GTOs)
 Exchange Functional    Exchange        .... B88
   X-Alpha parameter    XAlpha          ....  0.666667
   Becke's b parameter  XBeta           ....  0.004200
 Correlation Functional Correlation     .... LYP
 LDA part of GGA corr.  LDAOpt          .... VWN-5
 Gradients option       PostSCFGGA      .... off
 Hybrid DFT is turned on
   Fraction HF Exchange ScalHFX         ....  0.200000
   Scaling of DF-GGA-X  ScalDFX         ....  0.720000
   Scaling of DF-GGA-C  ScalDFC         ....  0.810000
   Scaling of DF-LDA-C  ScalLDAC        ....  1.000000
   Perturbative correction              ....  0.000000
   Density functional embedding theory  .... OFF
   NL short-range parameter             ....  4.800000


General Settings:
 Integral files         IntName         .... orca0
 Hartree-Fock type      HFTyp           .... UHF
 Total Charge           Charge          ....    0
 Multiplicity           Mult            ....    2
 Number of Electrons    NEL             ....   33
 Basis Dimension        Dim             ....   74
 Nuclear Repulsion      ENuc            ....    126.0891654975 Eh

Convergence Acceleration:
 DIIS                   CNVDIIS         .... on
   Start iteration      DIISMaxIt       ....    12
   Startup error        DIISStart       ....  0.200000
   # of expansion vecs  DIISMaxEq       ....     5
   Bias factor          DIISBfac        ....   1.050
   Max. coefficient     DIISMaxC        ....  10.000
 Newton-Raphson         CNVNR           .... off
 SOSCF                  CNVSOSCF        .... off
 Level Shifting         CNVShift        .... on
   Level shift para.    LevelShift      ....    0.2500
   Turn off err/grad.   ShiftErr        ....    0.0010
 Zerner damping         CNVZerner       .... off
 Static damping         CNVDamp         .... on
   Fraction old density DampFac         ....    0.7000
   Max. Damping (<1)    DampMax         ....    0.9800
   Min. Damping (>=0)   DampMin         ....    0.0000
   Turn off err/grad.   DampErr         ....    0.1000
 Fernandez-Rico         CNVRico         .... off

SCF Procedure:
 Maximum # iterations   MaxIter         ....   500
 SCF integral mode      SCFMode         .... Direct
   Integral package                     .... LIBINT
 Reset frequency        DirectResetFreq ....    20
 Integral Threshold     Thresh          ....  1.000e-12 Eh
 Primitive CutOff       TCut            ....  1.000e-14 Eh

Convergence Tolerance:
 Convergence Check Mode ConvCheckMode   .... Total+1el-Energy
 Convergence forced     ConvForced      .... 0
 Energy Change          TolE            ....  1.000e-09 Eh
 1-El. energy change                    ....  1.000e-06 Eh
 DIIS Error             TolErr          ....  1.000e-08


Diagonalization of the overlap matrix:
Smallest eigenvalue                        ... 2.079e-03
Time for diagonalization                   ...    0.091 sec
Threshold for overlap eigenvalues          ... 1.000e-08
Number of eigenvalues below threshold      ... 0
Time for construction of square roots      ...    0.639 sec
Total time needed                          ...    0.730 sec

-------------------
DFT GRID GENERATION
-------------------

General Integration Accuracy     IntAcc      ...  4.340
Radial Grid Type                 RadialGrid  ... Gauss-Chebyshev
Angular Grid (max. acc.)         AngularGrid ... Lebedev-110
Angular grid pruning method      GridPruning ... 3 (G Style)
Weight generation scheme         WeightScheme... Becke
Basis function cutoff            BFCut       ...    1.0000e-12
Integration weight cutoff        WCut        ...    1.0000e-14
Grids for H and He will be reduced by one unit

# of grid points (after initial pruning)     ...  13770 (   0.0 sec)
# of grid points (after weights+screening)   ...  12893 (   0.0 sec)
nearest neighbour list constructed           ...    0.0 sec
Grid point re-assignment to atoms done       ...    0.0 sec
Grid point division into batches done        ...    0.0 sec
Reduced shell lists constructed in    0.1 sec

Total number of grid points                  ...    12893
Total number of batches                      ...      210
Average number of points per batch           ...       61
Average number of grid points per atom       ...      992
Average number of shells per batch           ...    37.22 (88.61%)
Average number of basis functions per batch  ...    66.32 (89.62%)
Average number of large shells per batch     ...    32.35 (86.91%)
Average number of large basis fcns per batch ...    57.41 (86.56%)
Maximum spatial batch extension              ...  23.03, 20.91, 20.63 au
Average spatial batch extension              ...   4.21,  4.00,  4.10 au

Time for grid setup =    0.910 sec

------------------------------
INITIAL GUESS: MODEL POTENTIAL
------------------------------
Loading Hartree-Fock densities                     ... done
Calculating cut-offs                               ... done
Setting up the integral package                    ... done
Initializing the effective Hamiltonian             ... done
Starting the Coulomb interaction                   ... done (   0.0 sec)
Reading the grid                                   ... done
Mapping shells                                     ... done
Starting the XC term evaluation                    ... done (   0.1 sec)
  promolecular density results
     # of electrons  =     33.001491281
     EX              =    -23.187295037
     EC              =     -1.031313442
     EX+EC           =    -24.218608479
Transforming the Hamiltonian                       ... done (   0.6 sec)
Diagonalizing the Hamiltonian                      ... done (   0.0 sec)
Back transforming the eigenvectors                 ... done (   0.0 sec)
Now organizing SCF variables                       ... done
                      ------------------
                      INITIAL GUESS DONE (   1.7 sec)
                      ------------------
--------------
SCF ITERATIONS
--------------
ITER       Energy         Delta-E        Max-DP      RMS-DP      [F,P]     Damp
               ***  Starting incremental Fock matrix formation  ***
  0   -157.3576451917   0.000000000000 0.04256565  0.00226502  0.1730375 0.7000
  1   -157.4330526515  -0.075407459834 0.02639539  0.00164227  0.0899942 0.7000
                               ***Turning on DIIS***
  2   -157.4633813511  -0.030328699591 0.04269985  0.00264554  0.0335926 0.0000
  3   -157.5039247309  -0.040543379844 0.02077620  0.00120084  0.0493942 0.0000
  4   -157.5177297245  -0.013804993538 0.00371171  0.00034525  0.0106312 0.0000
  5   -157.5184890704  -0.000759345918 0.00210486  0.00013433  0.0020932 0.0000
  6   -157.5185495675  -0.000060497108 0.00119145  0.00008368  0.0004787 0.0000
  7   -157.5185593936  -0.000009826072 0.00043299  0.00001469  0.0003555 0.0000
  8   -157.5185601582  -0.000000764622 0.00017000  0.00000519  0.0001157 0.0000
  9   -157.5185602952  -0.000000137015 0.00004579  0.00000178  0.0000153 0.0000
 10   -157.5185603083  -0.000000013128 0.00001305  0.00000059  0.0000061 0.0000
 11   -157.5185603104  -0.000000002068 0.00000563  0.00000027  0.0000034 0.0000
 12   -157.5185603109  -0.000000000484 0.00000213  0.00000011  0.0000014 0.0000
 13   -157.5185603110  -0.000000000114 0.00000213  0.00000011  0.0000005 0.0000
 14   -157.5185603111  -0.000000000045 0.00000037  0.00000002  0.0000003 0.0000
 15   -157.5185603111   0.000000000003 0.00000034  0.00000002  0.0000001 0.0000
                 **** Energy Check signals convergence ****

 Fermi smearing  (ALPHA): E(HOMO(Eh)) = -0.323903 MUE = -0.068601 gap=   7.024 eV
 Fermi smearing   (BETA): E(HOMO(Eh)) = -0.318027 MUE = -0.183064 gap=   7.316 eV

N_FOD(alpha) =  0.000000
 N_FOD(beta) =  0.000000
       N_FOD =  0.000000

               *****************************************************
               *                     SUCCESS                       *
               *           SCF CONVERGED AFTER  16 CYCLES          *
               *****************************************************

Setting up the final grid:

General Integration Accuracy     IntAcc      ...  4.670
Radial Grid Type                 RadialGrid  ... Gauss-Chebyshev
Angular Grid (max. acc.)         AngularGrid ... Lebedev-302
Angular grid pruning method      GridPruning ... 3 (G Style)
Weight generation scheme         WeightScheme... Becke
Basis function cutoff            BFCut       ...    1.0000e-12
Integration weight cutoff        WCut        ...    1.0000e-14
Grids for H and He will be reduced by one unit

# of grid points (after initial pruning)     ...  55394 (   0.0 sec)
# of grid points (after weights+screening)   ...  51283 (   0.1 sec)
nearest neighbour list constructed           ...    0.0 sec
Grid point re-assignment to atoms done       ...    0.0 sec
Grid point division into batches done        ...    0.2 sec
Reduced shell lists constructed in    0.4 sec

Total number of grid points                  ...    51283
Total number of batches                      ...      808
Average number of points per batch           ...       63
Average number of grid points per atom       ...     3945
Average number of shells per batch           ...    34.91 (83.12%)
Average number of basis functions per batch  ...    62.07 (83.87%)
Average number of large shells per batch     ...    29.54 (84.62%)
Average number of large basis fcns per batch ...    52.10 (83.95%)
Maximum spatial batch extension              ...  18.90, 18.81, 19.98 au
Average spatial batch extension              ...   2.69,  2.61,  2.61 au

Final grid set up in    0.8 sec
Final integration                            ... done (   3.7 sec)
Change in XC energy                          ...     0.000507323
Integrated number of electrons               ...    33.000005048
Previous integrated no of electrons          ...    33.003998258

----------------
TOTAL SCF ENERGY
----------------

Total Energy       :         -157.51805299 Eh           -4286.28413 eV

Components:
Nuclear Repulsion  :          126.08916550 Eh            3431.06062 eV
Electronic Energy  :         -283.60721849 Eh           -7717.34476 eV
One Electron Energy:         -459.76523242 Eh          -12510.84801 eV
Two Electron Energy:          176.15801393 Eh            4793.50326 eV

Virial components:
Potential Energy   :         -313.37573615 Eh           -8527.38730 eV
Kinetic Energy     :          155.85768316 Eh            4241.10317 eV
Virial Ratio       :            2.01065312


DFT components:
N(Alpha)           :       17.000000850423 electrons
N(Beta)            :       16.000004197407 electrons
N(Total)           :       33.000005047830 electrons
E(X)               :      -18.881196980880 Eh       
E(C)               :       -1.222178334953 Eh       
E(XC)              :      -20.103375315834 Eh       
DFET-embed. en.    :        0.000000000000 Eh       

---------------
SCF CONVERGENCE
---------------

  Last Energy change         ...    1.1312e-11  Tolerance :   1.0000e-09
  Last MAX-Density change    ...    2.3562e-07  Tolerance :   1.0000e-08
  Last RMS-Density change    ...    1.5686e-08  Tolerance :   1.0000e-09
  Last DIIS Error            ...    2.0345e-08  Tolerance :   1.0000e-08

             **** THE GBW FILE WAS UPDATED (orca0.gbw) ****
             **** DENSITY FILE WAS UPDATED (orca0.scfp) ****
             **** ENERGY FILE WAS UPDATED (orca0.en.tmp) ****
             **** THE GBW FILE WAS UPDATED (orca0.gbw) ****
             **** DENSITY FILE WAS UPDATED (orca0.scfp) ****
----------------
ORBITAL ENERGIES
----------------
                 SPIN UP ORBITALS
  NO   OCC          E(Eh)            E(eV) 
   0   1.0000     -10.189980      -277.2835 
   1   1.0000     -10.168747      -276.7057 
   2   1.0000     -10.167557      -276.6733 
   3   1.0000     -10.167080      -276.6603 
   4   1.0000      -0.797651       -21.7052 
   5   1.0000      -0.678332       -18.4583 
   6   1.0000      -0.669485       -18.2176 
   7   1.0000      -0.531253       -14.4561 
   8   1.0000      -0.445231       -12.1154 
   9   1.0000      -0.437146       -11.8953 
  10   1.0000      -0.427975       -11.6458 
  11   1.0000      -0.393036       -10.6950 
  12   1.0000      -0.385847       -10.4994 
  13   1.0000      -0.347100        -9.4451 
  14   1.0000      -0.334318        -9.0972 
  15   1.0000      -0.323903        -8.8139 
  16   1.0000      -0.197673        -5.3790 
  17   0.0000       0.060472         1.6455 
  18   0.0000       0.103849         2.8259 
  19   0.0000       0.105546         2.8721 
  20   0.0000       0.112978         3.0743 
  21   0.0000       0.116427         3.1681 
  22   0.0000       0.133947         3.6449 
  23   0.0000       0.144561         3.9337 
  24   0.0000       0.157025         4.2729 
  25   0.0000       0.173828         4.7301 
  26   0.0000       0.209480         5.7003 
  27   0.0000       0.292472         7.9586 
  28   0.0000       0.295762         8.0481 
  29   0.0000       0.415282        11.3004 
  30   0.0000       0.432040        11.7564 
  31   0.0000       0.442833        12.0501 
  32   0.0000       0.498177        13.5561 
  33   0.0000       0.505437        13.7537 
  34   0.0000       0.523949        14.2574 
  35   0.0000       0.575337        15.6557 
  36   0.0000       0.583508        15.8781 
  37   0.0000       0.607240        16.5238 
  38   0.0000       0.632365        17.2075 
  39   0.0000       0.668500        18.1908 
  40   0.0000       0.674189        18.3456 
  41   0.0000       0.676262        18.4020 
  42   0.0000       0.684408        18.6237 
  43   0.0000       0.698126        18.9970 
  44   0.0000       0.716311        19.4918 
  45   0.0000       0.728475        19.8228 
  46   0.0000       0.731415        19.9028 
  47   0.0000       0.736126        20.0310 
  48   0.0000       0.749199        20.3867 
  49   0.0000       0.768967        20.9247 
  50   0.0000       0.776641        21.1335 
  51   0.0000       0.912808        24.8388 
  52   0.0000       0.950113        25.8539 
  53   0.0000       0.991742        26.9867 
  54   0.0000       1.377453        37.4824 
  55   0.0000       1.418901        38.6103 
  56   0.0000       1.765495        48.0416 
  57   0.0000       1.787854        48.6500 
  58   0.0000       1.796358        48.8814 
  59   0.0000       1.819660        49.5155 
  60   0.0000       1.859493        50.5994 
  61   0.0000       1.927794        52.4580 
  62   0.0000       1.939952        52.7888 
  63   0.0000       2.041508        55.5523 
  64   0.0000       2.069457        56.3128 
  65   0.0000       2.132584        58.0306 
  66   0.0000       2.174250        59.1643 
  67   0.0000       2.201987        59.9191 
  68   0.0000       2.206183        60.0333 
  69   0.0000       2.418017        65.7976 
  70   0.0000       2.448372        66.6236 
  71   0.0000       2.467965        67.1568 
  72   0.0000       2.700837        73.4935 
  73   0.0000       2.734904        74.4205 

                 SPIN DOWN ORBITALS
  NO   OCC          E(Eh)            E(eV) 
   0   1.0000     -10.175167      -276.8804 
   1   1.0000     -10.169214      -276.7184 
   2   1.0000     -10.168028      -276.6861 
   3   1.0000     -10.167588      -276.6741 
   4   1.0000      -0.782318       -21.2880 
   5   1.0000      -0.675677       -18.3861 
   6   1.0000      -0.666825       -18.1452 
   7   1.0000      -0.513771       -13.9804 
   8   1.0000      -0.434838       -11.8325 
   9   1.0000      -0.426162       -11.5965 
  10   1.0000      -0.423792       -11.5320 
  11   1.0000      -0.386703       -10.5227 
  12   1.0000      -0.380383       -10.3507 
  13   1.0000      -0.345392        -9.3986 
  14   1.0000      -0.329111        -8.9556 
  15   1.0000      -0.318027        -8.6539 
  16   0.0000      -0.049185        -1.3384 
  17   0.0000       0.062843         1.7101 
  18   0.0000       0.104862         2.8534 
  19   0.0000       0.106647         2.9020 
  20   0.0000       0.116413         3.1677 
  21   0.0000       0.119374         3.2483 
  22   0.0000       0.139957         3.8084 
  23   0.0000       0.147021         4.0006 
  24   0.0000       0.159434         4.3384 
  25   0.0000       0.175711         4.7813 
  26   0.0000       0.218280         5.9397 
  27   0.0000       0.302275         8.2253 
  28   0.0000       0.305279         8.3071 
  29   0.0000       0.418144        11.3783 
  30   0.0000       0.436648        11.8818 
  31   0.0000       0.452831        12.3222 
  32   0.0000       0.509740        13.8707 
  33   0.0000       0.513745        13.9797 
  34   0.0000       0.574637        15.6367 
  35   0.0000       0.581347        15.8193 
  36   0.0000       0.590579        16.0705 
  37   0.0000       0.614034        16.7087 
  38   0.0000       0.640091        17.4178 
  39   0.0000       0.670260        18.2387 
  40   0.0000       0.678821        18.4717 
  41   0.0000       0.679179        18.4814 
  42   0.0000       0.687256        18.7012 
  43   0.0000       0.701097        19.0778 
  44   0.0000       0.719657        19.5829 
  45   0.0000       0.730278        19.8719 
  46   0.0000       0.733068        19.9478 
  47   0.0000       0.737510        20.0687 
  48   0.0000       0.754478        20.5304 
  49   0.0000       0.778268        21.1778 
  50   0.0000       0.785447        21.3731 
  51   0.0000       0.918332        24.9891 
  52   0.0000       0.960006        26.1231 
  53   0.0000       0.997741        27.1499 
  54   0.0000       1.393159        37.9098 
  55   0.0000       1.435464        39.0610 
  56   0.0000       1.765361        48.0379 
  57   0.0000       1.800114        48.9836 
  58   0.0000       1.818589        49.4863 
  59   0.0000       1.828349        49.7519 
  60   0.0000       1.868419        50.8423 
  61   0.0000       1.936471        52.6941 
  62   0.0000       1.958905        53.3045 
  63   0.0000       2.050095        55.7859 
  64   0.0000       2.076035        56.4918 
  65   0.0000       2.133303        58.0501 
  66   0.0000       2.176388        59.2225 
  67   0.0000       2.204574        59.9895 
  68   0.0000       2.209642        60.1274 
  69   0.0000       2.442793        66.4718 
  70   0.0000       2.472289        67.2744 
  71   0.0000       2.494388        67.8757 
  72   0.0000       2.714354        73.8613 
  73   0.0000       2.747351        74.7592 

                    ********************************
                    * MULLIKEN POPULATION ANALYSIS *
                    ********************************

------------------------------------------
FOD BASED MULLIKEN REDUCED ORBITAL CHARGES
------------------------------------------
  0 C s       :     0.000000  s :     0.000000
      pz      :     0.000000  p :     0.000000
      px      :     0.000000
      py      :     0.000000
      dz2     :     0.000000  d :     0.000000
      dxz     :     0.000000
      dyz     :     0.000000
      dx2y2   :     0.000000
      dxy     :     0.000000
  1 C s       :    -0.000000  s :    -0.000000
      pz      :     0.000000  p :     0.000000
      px      :     0.000000
      py      :     0.000000
      dz2     :     0.000000  d :     0.000000
      dxz     :     0.000000
      dyz     :     0.000000
      dx2y2   :     0.000000
      dxy     :     0.000000
  2 C s       :    -0.000000  s :    -0.000000
      pz      :     0.000000  p :     0.000000
      px      :     0.000000
      py      :     0.000000
      dz2     :     0.000000  d :     0.000000
      dxz     :     0.000000
      dyz     :     0.000000
      dx2y2   :     0.000000
      dxy     :     0.000000
  3 C s       :    -0.000000  s :    -0.000000
      pz      :     0.000000  p :     0.000000
      px      :     0.000000
      py      :     0.000000
      dz2     :     0.000000  d :     0.000000
      dxz     :     0.000000
      dyz     :     0.000000
      dx2y2   :     0.000000
      dxy     :     0.000000
  4 H s       :     0.000000  s :     0.000000
  5 H s       :     0.000000  s :     0.000000
  6 H s       :     0.000000  s :     0.000000
  7 H s       :     0.000000  s :     0.000000
  8 H s       :     0.000000  s :     0.000000
  9 H s       :     0.000000  s :     0.000000
 10 H s       :     0.000000  s :     0.000000
 11 H s       :     0.000000  s :     0.000000
 12 H s       :     0.000000  s :     0.000000


                     *******************************
                     * LOEWDIN POPULATION ANALYSIS *
                     *******************************

-------------------------------------------
LOEWDIN ATOMIC CHARGES AND SPIN POPULATIONS
-------------------------------------------
   0 C :   -0.074124    0.834641
   1 C :   -0.320298   -0.011256
   2 C :   -0.313961   -0.010160
   3 C :   -0.319182   -0.010523
   4 H :    0.111874    0.014783
   5 H :    0.120976    0.036209
   6 H :    0.112140    0.017841
   7 H :    0.116990    0.044007
   8 H :    0.107811    0.002323
   9 H :    0.112425    0.015530
  10 H :    0.114456    0.022110
  11 H :    0.111227    0.011344
  12 H :    0.119667    0.033153

----------------------------------------------------
LOEWDIN REDUCED ORBITAL CHARGES AND SPIN POPULATIONS
----------------------------------------------------
CHARGE
  0 C s       :     2.924891  s :     2.924891
      pz      :     0.974007  p :     3.055387
      px      :     1.041104
      py      :     1.040276
      dz2     :     0.008527  d :     0.093846
      dxz     :     0.011325
      dyz     :     0.017799
      dx2y2   :     0.030856
      dxy     :     0.025340
  1 C s       :     2.956908  s :     2.956908
      pz      :     1.103214  p :     3.286610
      px      :     1.106008
      py      :     1.077388
      dz2     :     0.006604  d :     0.076780
      dxz     :     0.020056
      dyz     :     0.019988
      dx2y2   :     0.012142
      dxy     :     0.017991
  2 C s       :     2.958847  s :     2.958847
      pz      :     1.100259  p :     3.277622
      px      :     1.067629
      py      :     1.109734
      dz2     :     0.017708  d :     0.077491
      dxz     :     0.016211
      dyz     :     0.010908
      dx2y2   :     0.015983
      dxy     :     0.016681
  3 C s       :     2.952848  s :     2.952848
      pz      :     1.103695  p :     3.289895
      px      :     1.097010
      py      :     1.089190
      dz2     :     0.004503  d :     0.076439
      dxz     :     0.020504
      dyz     :     0.021980
      dx2y2   :     0.010854
      dxy     :     0.018598
  4 H s       :     0.888126  s :     0.888126
  5 H s       :     0.879024  s :     0.879024
  6 H s       :     0.887860  s :     0.887860
  7 H s       :     0.883010  s :     0.883010
  8 H s       :     0.892189  s :     0.892189
  9 H s       :     0.887575  s :     0.887575
 10 H s       :     0.885544  s :     0.885544
 11 H s       :     0.888773  s :     0.888773
 12 H s       :     0.880333  s :     0.880333

SPIN
  0 C s       :     0.079198  s :     0.079198
      pz      :     0.709047  p :     0.758541
      px      :     0.032034
      py      :     0.017460
      dz2     :    -0.000066  d :    -0.003098
      dxz     :    -0.000592
      dyz     :    -0.001068
      dx2y2   :    -0.000970
      dxy     :    -0.000402
  1 C s       :    -0.002220  s :    -0.002220
      pz      :    -0.005984  p :    -0.022699
      px      :    -0.005988
      py      :    -0.010727
      dz2     :     0.001680  d :     0.013662
      dxz     :     0.001442
      dyz     :     0.007167
      dx2y2   :     0.001063
      dxy     :     0.002310
  2 C s       :    -0.001304  s :    -0.001304
      pz      :    -0.008123  p :    -0.021876
      px      :    -0.011326
      py      :    -0.002427
      dz2     :     0.002082  d :     0.013020
      dxz     :     0.009196
      dyz     :     0.000912
      dx2y2   :     0.000630
      dxy     :     0.000200
  3 C s       :    -0.001399  s :    -0.001399
      pz      :    -0.006605  p :    -0.022455
      px      :    -0.007070
      py      :    -0.008781
      dz2     :     0.001499  d :     0.013331
      dxz     :     0.002162
      dyz     :     0.006398
      dx2y2   :     0.000210
      dxy     :     0.003062
  4 H s       :     0.014783  s :     0.014783
  5 H s       :     0.036209  s :     0.036209
  6 H s       :     0.017841  s :     0.017841
  7 H s       :     0.044007  s :     0.044007
  8 H s       :     0.002323  s :     0.002323
  9 H s       :     0.015530  s :     0.015530
 10 H s       :     0.022110  s :     0.022110
 11 H s       :     0.011344  s :     0.011344
 12 H s       :     0.033153  s :     0.033153


                      *****************************
                      * MAYER POPULATION ANALYSIS *
                      *****************************

  NA   - Mulliken gross atomic population
  ZA   - Total nuclear charge
  QA   - Mulliken gross atomic charge
  VA   - Mayer's total valence
  BVA  - Mayer's bonded valence
  FA   - Mayer's free valence

  ATOM       NA         ZA         QA         VA         BVA        FA
  0 C      6.0635     6.0000    -0.0635     4.1481     3.4230     0.7251
  1 C      6.2794     6.0000    -0.2794     3.9234     3.9206     0.0028
  2 C      6.2599     6.0000    -0.2599     3.9508     3.9480     0.0029
  3 C      6.2613     6.0000    -0.2613     3.9267     3.9241     0.0026
  4 H      0.9061     1.0000     0.0939     0.9634     0.9630     0.0004
  5 H      0.8958     1.0000     0.1042     0.9486     0.9471     0.0016
  6 H      0.9064     1.0000     0.0936     0.9627     0.9621     0.0006
  7 H      0.8996     1.0000     0.1004     0.9548     0.9516     0.0032
  8 H      0.9115     1.0000     0.0885     0.9560     0.9559     0.0000
  9 H      0.9029     1.0000     0.0971     0.9531     0.9528     0.0003
 10 H      0.9055     1.0000     0.0945     0.9615     0.9607     0.0009
 11 H      0.9086     1.0000     0.0914     0.9625     0.9623     0.0002
 12 H      0.8995     1.0000     0.1005     0.9503     0.9490     0.0013

  Mayer bond orders larger than 0.100000
B(  0-C ,  1-C ) :   1.0937 B(  0-C ,  2-C ) :   1.1121 B(  0-C ,  3-C ) :   1.0992 
B(  1-C ,  4-H ) :   0.9542 B(  1-C ,  5-H ) :   0.9405 B(  1-C ,  6-H ) :   0.9452 
B(  2-C ,  7-H ) :   0.9316 B(  2-C ,  8-H ) :   0.9599 B(  2-C ,  9-H ) :   0.9511 
B(  3-C , 10-H ) :   0.9491 B(  3-C , 11-H ) :   0.9509 B(  3-C , 12-H ) :   0.9438 


-------
TIMINGS
-------

Total SCF time: 0 days 0 hours 2 min 8 sec 

Total time                  ....     128.645 sec
Sum of individual times     ....     110.757 sec  ( 86.1%)

Fock matrix formation       ....      91.755 sec  ( 71.3%)
  XC integration            ....      47.619 sec  ( 51.9% of F)
    Basis function eval.    ....       1.025 sec  (  2.2% of XC)
    Density eval.           ....       0.698 sec  (  1.5% of XC)
    XC-Functional eval.     ....       0.448 sec  (  0.9% of XC)
    XC-Potential eval.      ....       0.984 sec  (  2.1% of XC)
Diagonalization             ....       0.049 sec  (  0.0%)
Density matrix formation    ....      11.939 sec  (  9.3%)
Population analysis         ....       2.216 sec  (  1.7%)
Initial guess               ....       0.776 sec  (  0.6%)
Orbital Transformation      ....       0.000 sec  (  0.0%)
Orbital Orthonormalization  ....       0.000 sec  (  0.0%)
DIIS solution               ....       2.330 sec  (  1.8%)
Grid generation             ....       1.693 sec  (  1.3%)


-------------------------------------------------------------------------------
                          DFT DISPERSION CORRECTION                            
                                                                               
                              DFTD3 V3.1  Rev 1                                
                          USING Becke-Johnson damping                          
-------------------------------------------------------------------------------
The B3LYP functional is recognized
Active option DFTDOPT                   ...         4   

molecular C6(AA) [au] = 1132.848551 


            DFT-D V3
 parameters
 s6 scaling factor         :     1.0000 
 a1 scaling factor         :     0.3981 
 s8 scaling factor         :     1.9889 
 a2 scaling factor         :     4.4211 
 ad hoc parameters k1-k3   :    16.0000     1.3333    -4.0000 

 Edisp/kcal,au: -8.900983721733  -0.014184618942 
 E6   /kcal   :  -4.411127061 
 E8   /kcal   :  -4.489856661 
 % E8         :  50.442252243 

-------------------------   ----------------
Dispersion correction           -0.014184619
-------------------------   ----------------


-------------------------   --------------------
FINAL SINGLE POINT ENERGY      -157.532237607284
-------------------------   --------------------

------------------------------------------------------------------------------
                         ORCA SCF GRADIENT CALCULATION
------------------------------------------------------------------------------

Gradient of the Kohn-Sham DFT energy:
Kohn-Sham wavefunction type      ... UKS
Hartree-Fock exchange scaling    ...    0.200
Number of operators              ...    2
Number of atoms                  ...   13
Basis set dimensions             ...   74
Integral neglect threshold       ... 1.0e-12
Integral primitive cutoff        ... 1.0e-14

Nuclear repulsion gradient       ... done
One Electron Gradient            ... done
Pre-screening matrix             ... done
Starting the two electron gradient:
Two electron gradient done
Exchange-correlation gradient    ... done
Dispersion correction            ... done

------------------
CARTESIAN GRADIENT
------------------

   1   C   :    0.015299643   -0.001225339   -0.052236678
   2   C   :   -0.008117633   -0.028808147    0.013427975
   3   C   :    0.011821104   -0.014623628    0.044760333
   4   C   :   -0.026224285    0.017598051    0.014499424
   5   H   :   -0.005444387    0.006392170    0.002914550
   6   H   :   -0.001301402    0.001790058   -0.004110119
   7   H   :   -0.004868479    0.001565563   -0.001258898
   8   H   :   -0.000815403    0.006722077   -0.005188333
   9   H   :    0.005405642    0.009986956   -0.001847232
  10   H   :    0.001264415    0.003108295   -0.011889638
  11   H   :    0.005871075   -0.000337236    0.000241788
  12   H   :    0.004762066   -0.001348412    0.004508306
  13   H   :    0.002347643   -0.000820407   -0.003821478

Difference to translation invariance:
           :    0.0000000000   -0.0000000000   -0.0000000000

Norm of the cartesian gradient     ...    0.0905075810
RMS gradient                       ...    0.0144928118
MAX gradient                       ...    0.0522366776

-------
TIMINGS
-------

Total SCF gradient time            ...        4.387 sec

One electron gradient       ....       0.030 sec  (  0.7%)
Prescreening matrices       ....       0.028 sec  (  0.6%)
Two electron gradient       ....       1.392 sec  ( 31.7%)
XC gradient                 ....       2.750 sec  ( 62.7%)
------------------------------------------------------------------------------
                         ORCA GEOMETRY RELAXATION STEP
------------------------------------------------------------------------------

Reading the OPT-File                    .... done
Getting information on internals        .... done
Copying old internal coords+grads       .... done
Making the new internal coordinates     .... (new redundants).... done
Validating the new internal coordinates .... (new redundants).... done
Calculating the B-matrix                .... done
Calculating the G,G- and P matrices     .... done
Transforming gradient to internals      .... done
Projecting the internal gradient        .... done
Number of atoms                         ....  13
Number of internal coordinates          ....  51
Current Energy                          ....  -157.532237607 Eh
Current gradient norm                   ....     0.090507581 Eh/bohr
Maximum allowed component of the step   ....  0.300
Current trust radius                    ....  0.300
Evaluating the initial hessian          ....  (Almloef) done
Projecting the Hessian                  .... done
Forming the augmented Hessian           .... done
Diagonalizing the augmented Hessian     .... done
Last element of RFO vector              ....  0.887250361
Lowest eigenvalues of augmented Hessian:
 -0.020983596  0.012673827  0.013057909  0.013311733  0.051603146
Length of the computed step             ....  0.519907586
Warning: the length of the step is outside the trust region - taking restricted step instead
The input lambda is                     ....    -0.020984
   iter:   1  x=   -0.041131  g=    8.949366 f(x)=     0.180304
   iter:   2  x=   -0.059171  g=    3.606405 f(x)=     0.065062
   iter:   3  x=   -0.067764  g=    1.963920 f(x)=     0.016875
   iter:   4  x=   -0.069032  g=    1.534936 f(x)=     0.001947
   iter:   5  x=   -0.069055  g=    1.482876 f(x)=     0.000033
   iter:   6  x=   -0.069055  g=    1.481977 f(x)=     0.000000
   iter:   7  x=   -0.069055  g=    1.481976 f(x)=     0.000000
The output lambda is                    ....    -0.069055 (7 iterations)
The final length of the internal step   ....  0.300000000
Converting the step to cartesian space:
 Initial RMS(Int)=    0.0420084025
Transforming coordinates:
 Iter   0:  RMS(Cart)=    0.0683371444 RMS(Int)=    0.0423481523
 Iter   1:  RMS(Cart)=    0.0031046781 RMS(Int)=    0.0016735179
 Iter   2:  RMS(Cart)=    0.0001363632 RMS(Int)=    0.0000754255
 Iter   3:  RMS(Cart)=    0.0000096701 RMS(Int)=    0.0000073534
 Iter   4:  RMS(Cart)=    0.0000006348 RMS(Int)=    0.0000003856
 Iter   5:  RMS(Cart)=    0.0000000474 RMS(Int)=    0.0000000394
done
Storing new coordinates                 .... done

                                .--------------------.
          ----------------------|Geometry convergence|-------------------------
          Item                value                   Tolerance       Converged
          ---------------------------------------------------------------------
          RMS gradient        0.0076419291            0.0001000000      NO
          MAX gradient        0.0188178611            0.0003000000      NO
          RMS step            0.0420084025            0.0020000000      NO
          MAX step            0.1085077743            0.0040000000      NO
          ........................................................
          Max(Bonds)      0.0204      Max(Angles)    4.68
          Max(Dihed)        6.22      Max(Improp)    0.00
          ---------------------------------------------------------------------

The optimization has not yet converged - more geometry cycles are needed


    ---------------------------------------------------------------------------
                         Redundant Internal Coordinates
                            (Angstroem and degrees)

        Definition                    Value    dE/dq     Step     New-Value
    ----------------------------------------------------------------------------
     1. B(C   1,C   0)                1.4981 -0.018818  0.0204    1.5184   
     2. B(C   2,C   0)                1.5065 -0.014010  0.0156    1.5221   
     3. B(C   3,C   0)                1.4955 -0.013251  0.0142    1.5097   
     4. B(H   4,C   1)                1.1194  0.008647 -0.0117    1.1077   
     5. B(H   5,C   1)                1.1198  0.003532 -0.0048    1.1151   
     6. B(H   6,C   1)                1.0994 -0.004381  0.0056    1.1049   
     7. B(H   7,C   2)                1.0983 -0.006223  0.0079    1.1062   
     8. B(H   8,C   2)                1.1179  0.007319 -0.0098    1.1081   
     9. B(H   9,C   2)                1.1177  0.005617 -0.0075    1.1102   
    10. B(H  10,C   3)                1.1034 -0.002760  0.0035    1.1070   
    11. B(H  11,C   3)                1.1157  0.005916 -0.0079    1.1078   
    12. B(H  12,C   3)                1.1198  0.004221 -0.0057    1.1141   
    13. A(C   1,C   0,C   3)          114.46  0.002150    1.20    115.66   
    14. A(C   2,C   0,C   3)          113.58  0.003822    0.93    114.50   
    15. A(C   1,C   0,C   2)          107.99 -0.018396    4.68    112.67   
    16. A(H   4,C   1,H   5)          103.91 -0.001287    0.42    104.33   
    17. A(H   5,C   1,H   6)          106.72  0.001897   -0.48    106.24   
    18. A(H   4,C   1,H   6)          106.74 -0.002391    0.35    107.09   
    19. A(C   0,C   1,H   4)          113.27  0.001893   -0.20    113.07   
    20. A(C   0,C   1,H   5)          111.52 -0.003067    0.46    111.97   
    21. A(C   0,C   1,H   6)          113.97  0.002652   -0.48    113.48   
    22. A(H   7,C   2,H   9)          112.80  0.006646   -1.91    110.89   
    23. A(C   0,C   2,H   9)          111.32 -0.006386    0.73    112.05   
    24. A(H   7,C   2,H   8)          106.79  0.001341    0.22    107.00   
    25. A(C   0,C   2,H   8)          105.74 -0.016184    2.89    108.63   
    26. A(H   8,C   2,H   9)          105.21  0.003486    0.20    105.41   
    27. A(C   0,C   2,H   7)          114.20  0.009296   -1.63    112.57   
    28. A(H  11,C   3,H  12)          104.59 -0.001007    0.31    104.91   
    29. A(H  10,C   3,H  12)          105.23 -0.001028    0.07    105.30   
    30. A(C   0,C   3,H  12)          111.66 -0.003484    0.53    112.19   
    31. A(H  10,C   3,H  11)          106.05 -0.005096    0.72    106.78   
    32. A(C   0,C   3,H  11)          113.77  0.002732   -0.38    113.39   
    33. A(C   0,C   3,H  10)          114.66  0.006935   -1.10    113.56   
    34. D(H   6,C   1,C   0,C   2)    121.35 -0.005005    3.35    124.70   
    35. D(H   4,C   1,C   0,C   2)     -0.95 -0.005382    3.42      2.48   
    36. D(H   6,C   1,C   0,C   3)     -6.21  0.003407   -2.66     -8.87   
    37. D(H   5,C   1,C   0,C   2)   -117.74 -0.002903    2.71   -115.03   
    38. D(H   4,C   1,C   0,C   3)   -128.51  0.003030   -2.59   -131.10   
    39. D(H   5,C   1,C   0,C   3)    114.69  0.005509   -3.29    111.40   
    40. D(H   7,C   2,C   0,C   1)    -78.22  0.007860   -3.29    -81.51   
    41. D(H   9,C   2,C   0,C   3)    -79.31 -0.012930    6.22    -73.09   
    42. D(H   9,C   2,C   0,C   1)    152.62 -0.003789    0.14    152.76   
    43. D(H   8,C   2,C   0,C   3)    166.96 -0.005062    4.03    170.99   
    44. D(H   8,C   2,C   0,C   1)     38.89  0.004079   -2.05     36.84   
    45. D(H   7,C   2,C   0,C   3)     49.85 -0.001280    2.79     52.64   
    46. D(H  11,C   3,C   0,C   1)     -5.42 -0.010813    4.17     -1.26   
    47. D(H  10,C   3,C   0,C   2)     -7.75  0.010506   -4.35    -12.10   
    48. D(H  10,C   3,C   0,C   1)    116.90 -0.009906    3.95    120.85   
    49. D(H  12,C   3,C   0,C   2)    111.81  0.011504   -4.65    107.16   
    50. D(H  12,C   3,C   0,C   1)   -123.54 -0.008908    3.65   -119.89   
    51. D(H  11,C   3,C   0,C   2)   -130.08  0.009599   -4.13   -134.21   
    ----------------------------------------------------------------------------

Time needed for optimization step       :     1.54 sec

         *************************************************************
         *                GEOMETRY OPTIMIZATION CYCLE   2            *
         *************************************************************
---------------------------------
CARTESIAN COORDINATES (ANGSTROEM)
---------------------------------
  C      0.055200   -0.009352   -0.288657
  C      0.543752    1.345105    0.193433
  C     -1.450342   -0.174769   -0.137705
  C      0.860426   -1.195356    0.184854
  H     -0.265100    1.972920    0.616131
  H      0.962473    1.958003   -0.638685
  H      1.337830    1.279758    0.958958
  H     -1.744909   -0.461082    0.889360
  H     -1.936506    0.796887   -0.355547
  H     -1.867561   -0.885617   -0.881436
  H      0.268577   -1.928187    0.766273
  H      1.728501   -0.914863    0.813365
  H      1.294942   -1.774152   -0.662170

----------------------------
CARTESIAN COORDINATES (A.U.)
----------------------------
  NO LB      ZA    FRAG     MASS         X           Y           Z
   0 C     6.0000    0    12.011    0.104312   -0.017673   -0.545482
   1 C     6.0000    0    12.011    1.027542    2.541880    0.365536
   2 C     6.0000    0    12.011   -2.740749   -0.330265   -0.260224
   3 C     6.0000    0    12.011    1.625970   -2.258896    0.349323
   4 H     1.0000    0     1.008   -0.500966    3.728278    1.164318
   5 H     1.0000    0     1.008    1.818811    3.700090   -1.206940
   6 H     1.0000    0     1.008    2.528133    2.418392    1.812168
   7 H     1.0000    0     1.008   -3.297401   -0.871318    1.680647
   8 H     1.0000    0     1.008   -3.659465    1.505898   -0.671886
   9 H     1.0000    0     1.008   -3.529178   -1.673574   -1.665672
  10 H     1.0000    0     1.008    0.507536   -3.643745    1.448047
  11 H     1.0000    0     1.008    3.266393   -1.728841    1.537038
  12 H     1.0000    0     1.008    2.447086   -3.352662   -1.251321

--------------------------------
INTERNAL COORDINATES (ANGSTROEM)
--------------------------------
 C      0   0   0     0.000000000000     0.00000000     0.00000000
 C      1   0   0     1.518436347795     0.00000000     0.00000000
 C      1   2   0     1.522105116955   112.56299173     0.00000000
 C      1   2   3     1.509704420077   115.43972029   226.32217326
 H      2   1   3     1.107730010018   113.06452434     2.52816742
 H      2   1   3     1.115074987046   111.97383829   245.02426916
 H      2   1   3     1.104924798274   113.48086924   124.75414421
 H      3   1   2     1.106168183883   112.55733848   278.45668114
 H      3   1   2     1.108117700229   108.61250984    36.76935964
 H      3   1   2     1.110186185933   112.01612316   152.72337528
 H      4   1   2     1.106966593563   113.55565943   120.82077673
 H      4   1   2     1.107815838472   113.38947304   358.70938342
 H      4   1   2     1.114118184411   112.19039947   240.08030648

---------------------------
INTERNAL COORDINATES (A.U.)
---------------------------
 C      0   0   0     0.000000000000     0.00000000     0.00000000
 C      1   0   0     2.869428849123     0.00000000     0.00000000
 C      1   2   0     2.876361818084   112.56299173     0.00000000
 C      1   2   3     2.852927897115   115.43972029   226.32217326
 H      2   1   3     2.093306349259   113.06452434     2.52816742
 H      2   1   3     2.107186344303   111.97383829   245.02426916
 H      2   1   3     2.088005267315   113.48086924   124.75414421
 H      3   1   2     2.090354925595   112.55733848   278.45668114
 H      3   1   2     2.094038977583   108.61250984    36.76935964
 H      3   1   2     2.097947849077   112.01612316   152.72337528
 H      4   1   2     2.091863701235   113.55565943   120.82077673
 H      4   1   2     2.093468541532   113.38947304   358.70938342
 H      4   1   2     2.105378249358   112.19039947   240.08030648


Diagonalization of the overlap matrix:
Smallest eigenvalue                        ... 2.515e-03
Time for diagonalization                   ...    0.001 sec
Threshold for overlap eigenvalues          ... 1.000e-08
Number of eigenvalues below threshold      ... 0
Time for construction of square roots      ...    0.352 sec
Total time needed                          ...    0.353 sec

-------------------
DFT GRID GENERATION
-------------------

General Integration Accuracy     IntAcc      ...  4.340
Radial Grid Type                 RadialGrid  ... Gauss-Chebyshev
Angular Grid (max. acc.)         AngularGrid ... Lebedev-110
Angular grid pruning method      GridPruning ... 3 (G Style)
Weight generation scheme         WeightScheme... Becke
Basis function cutoff            BFCut       ...    1.0000e-12
Integration weight cutoff        WCut        ...    1.0000e-14
Grids for H and He will be reduced by one unit

# of grid points (after initial pruning)     ...  13770 (   0.0 sec)
# of grid points (after weights+screening)   ...  12917 (   0.0 sec)
nearest neighbour list constructed           ...    0.0 sec
Grid point re-assignment to atoms done       ...    0.0 sec
Grid point division into batches done        ...    0.0 sec
Reduced shell lists constructed in    0.1 sec

Total number of grid points                  ...    12917
Total number of batches                      ...      210
Average number of points per batch           ...       61
Average number of grid points per atom       ...      994
Average number of shells per batch           ...    37.20 (88.58%)
Average number of basis functions per batch  ...    66.31 (89.61%)
Average number of large shells per batch     ...    32.13 (86.37%)
Average number of large basis fcns per batch ...    56.95 (85.88%)
Maximum spatial batch extension              ...  20.73, 21.09, 21.81 au
Average spatial batch extension              ...   4.29,  4.07,  4.26 au

Time for grid setup =    0.809 sec

--------------
SCF ITERATIONS
--------------
ITER       Energy         Delta-E        Max-DP      RMS-DP      [F,P]     Damp
               ***  Starting incremental Fock matrix formation  ***
  0   -157.5258098615   0.000000000000 0.00192463  0.00015867  0.0164393 0.7000
  1   -157.5265454813  -0.000735619807 0.00179061  0.00014899  0.0130170 0.7000
                               ***Turning on DIIS***
  2   -157.5271226521  -0.000577170799 0.00466070  0.00039674  0.0097782 0.0000
  3   -157.5285887245  -0.001466072404 0.00311888  0.00008235  0.0014798 0.0000
  4   -157.5286115222  -0.000022797699 0.00266581  0.00007157  0.0007102 0.0000
  5   -157.5286161031  -0.000004580917 0.00050800  0.00001574  0.0003637 0.0000
  6   -157.5286166199  -0.000000516778 0.00032377  0.00000758  0.0001423 0.0000
  7   -157.5286166965  -0.000000076623 0.00004739  0.00000160  0.0000183 0.0000
  8   -157.5286167010  -0.000000004488 0.00000988  0.00000048  0.0000133 0.0000
  9   -157.5286167019  -0.000000000915 0.00000983  0.00000025  0.0000041 0.0000
 10   -157.5286167021  -0.000000000141 0.00000099  0.00000005  0.0000005 0.0000
                 **** Energy Check signals convergence ****

 Fermi smearing  (ALPHA): E(HOMO(Eh)) = -0.330991 MUE = -0.065128 gap=   6.815 eV
 Fermi smearing   (BETA): E(HOMO(Eh)) = -0.325188 MUE = -0.182639 gap=   7.695 eV

N_FOD(alpha) =  0.000000
 N_FOD(beta) =  0.000000
       N_FOD =  0.000000

               *****************************************************
               *                     SUCCESS                       *
               *           SCF CONVERGED AFTER  11 CYCLES          *
               *****************************************************

Setting up the final grid:

General Integration Accuracy     IntAcc      ...  4.670
Radial Grid Type                 RadialGrid  ... Gauss-Chebyshev
Angular Grid (max. acc.)         AngularGrid ... Lebedev-302
Angular grid pruning method      GridPruning ... 3 (G Style)
Weight generation scheme         WeightScheme... Becke
Basis function cutoff            BFCut       ...    1.0000e-12
Integration weight cutoff        WCut        ...    1.0000e-14
Grids for H and He will be reduced by one unit

# of grid points (after initial pruning)     ...  55394 (   0.0 sec)
# of grid points (after weights+screening)   ...  51345 (   0.1 sec)
nearest neighbour list constructed           ...    0.0 sec
Grid point re-assignment to atoms done       ...    0.0 sec
Grid point division into batches done        ...    0.2 sec
Reduced shell lists constructed in    0.4 sec

Total number of grid points                  ...    51345
Total number of batches                      ...      808
Average number of points per batch           ...       63
Average number of grid points per atom       ...     3950
Average number of shells per batch           ...    34.73 (82.69%)
Average number of basis functions per batch  ...    61.70 (83.38%)
Average number of large shells per batch     ...    29.22 (84.12%)
Average number of large basis fcns per batch ...    51.33 (83.20%)
Maximum spatial batch extension              ...  19.43, 19.15, 16.61 au
Average spatial batch extension              ...   2.65,  2.63,  2.58 au

Final grid set up in    0.7 sec
Final integration                            ... done (   2.9 sec)
Change in XC energy                          ...     0.000395842
Integrated number of electrons               ...    33.000017691
Previous integrated no of electrons          ...    33.003483245
Total Energy       :         -157.52822086 Eh           -4286.56081 eV
  Last Energy change         ...   -1.2193e-11  Tolerance :   1.0000e-09
  Last MAX-Density change    ...    2.9488e-07  Tolerance :   1.0000e-08
             **** THE GBW FILE WAS UPDATED (orca0.gbw) ****
             **** DENSITY FILE WAS UPDATED (orca0.scfp) ****
             **** ENERGY FILE WAS UPDATED (orca0.en.tmp) ****
             **** THE GBW FILE WAS UPDATED (orca0.gbw) ****
             **** DENSITY FILE WAS UPDATED (orca0.scfp) ****
Total SCF time: 0 days 0 hours 1 min 19 sec 


-------------------------------------------------------------------------------
                          DFT DISPERSION CORRECTION                            
                                                                               
                              DFTD3 V3.1  Rev 1                                
                          USING Becke-Johnson damping                          
-------------------------------------------------------------------------------
-------------------------   ----------------
Dispersion correction           -0.013958485
-------------------------   ----------------


-------------------------   --------------------
FINAL SINGLE POINT ENERGY      -157.542179345606
-------------------------   --------------------

------------------------------------------------------------------------------
                         ORCA SCF GRADIENT CALCULATION
------------------------------------------------------------------------------

Gradient of the Kohn-Sham DFT energy:
Kohn-Sham wavefunction type      ... UKS
Hartree-Fock exchange scaling    ...    0.200
Number of operators              ...    2
Number of atoms                  ...   13
Basis set dimensions             ...   74
Integral neglect threshold       ... 1.0e-12
Integral primitive cutoff        ... 1.0e-14

Nuclear repulsion gradient       ... done
One Electron Gradient            ... done
Pre-screening matrix             ... done
Starting the two electron gradient:
Two electron gradient done
Exchange-correlation gradient    ... done
Dispersion correction            ... done

------------------
CARTESIAN GRADIENT
------------------

   1   C   :    0.011841521   -0.002090277   -0.042803086
   2   C   :   -0.004241420   -0.008652669    0.012873713
   3   C   :   -0.003383786   -0.011444675    0.026067845
   4   C   :   -0.011596579    0.008507450    0.013006552
   5   H   :    0.001279670    0.002925884    0.000185438
   6   H   :   -0.001011332    0.001696207   -0.001312829
   7   H   :   -0.001327313    0.002134995    0.000403076
   8   H   :   -0.000881971    0.004093656   -0.001432521
   9   H   :    0.002425593    0.002409913   -0.001103370
  10   H   :    0.000216272    0.004183903   -0.006628786
  11   H   :    0.003489343   -0.001310641    0.000384910
  12   H   :    0.001588602   -0.002305043    0.001165305
  13   H   :    0.001601400   -0.000148702   -0.000806249

Difference to translation invariance:
           :   -0.0000000000   -0.0000000000   -0.0000000000

Norm of the cartesian gradient     ...    0.0598003132
RMS gradient                       ...    0.0095757138
MAX gradient                       ...    0.0428030857

-------
TIMINGS
-------

Total SCF gradient time            ...        4.553 sec

One electron gradient       ....       0.022 sec  (  0.5%)
Prescreening matrices       ....       0.024 sec  (  0.5%)
Two electron gradient       ....       1.375 sec  ( 30.2%)
XC gradient                 ....       2.633 sec  ( 57.8%)
------------------------------------------------------------------------------
                         ORCA GEOMETRY RELAXATION STEP
------------------------------------------------------------------------------

Reading the OPT-File                    .... done
Getting information on internals        .... done
Copying old internal coords+grads       .... done
Making the new internal coordinates     .... (new redundants).... done
Validating the new internal coordinates .... (new redundants).... done
Calculating the B-matrix                .... done
Calculating the G,G- and P matrices     .... done
Transforming gradient to internals      .... done
Projecting the internal gradient        .... done
Number of atoms                         ....  13
Number of internal coordinates          ....  51
Current Energy                          ....  -157.542179346 Eh
Current gradient norm                   ....     0.059800313 Eh/bohr
Maximum allowed component of the step   ....  0.300
Current trust radius                    ....  0.300
Updating the Hessian (BFGS)             .... done
Forming the augmented Hessian           .... done
Diagonalizing the augmented Hessian     .... done
Last element of RFO vector              ....  0.924353986
Lowest eigenvalues of augmented Hessian:
 -0.009115348  0.012529420  0.013058603  0.013316133  0.047080016
Length of the computed step             ....  0.412759604
Warning: the length of the step is outside the trust region - taking restricted step instead
The input lambda is                     ....    -0.009115
   iter:   1  x=   -0.020561  g=    7.021999 f(x)=     0.080370
   iter:   2  x=   -0.026694  g=    3.639043 f(x)=     0.022319
   iter:   3  x=   -0.027810  g=    2.713420 f(x)=     0.003029
   iter:   4  x=   -0.027839  g=    2.580681 f(x)=     0.000075
   iter:   5  x=   -0.027839  g=    2.577348 f(x)=     0.000000
   iter:   6  x=   -0.027839  g=    2.577346 f(x)=     0.000000
The output lambda is                    ....    -0.027839 (6 iterations)
The final length of the internal step   ....  0.300000000
Converting the step to cartesian space:
 Initial RMS(Int)=    0.0420084025
Transforming coordinates:
 Iter   0:  RMS(Cart)=    0.0430713236 RMS(Int)=    0.0427733658
 Iter   1:  RMS(Cart)=    0.0028974891 RMS(Int)=    0.0015946228
 Iter   2:  RMS(Cart)=    0.0001319790 RMS(Int)=    0.0000681366
 Iter   3:  RMS(Cart)=    0.0000047398 RMS(Int)=    0.0000038683
 Iter   4:  RMS(Cart)=    0.0000003200 RMS(Int)=    0.0000001950
 Iter   5:  RMS(Cart)=    0.0000000152 RMS(Int)=    0.0000000129
done
Storing new coordinates                 .... done

                                .--------------------.
          ----------------------|Geometry convergence|-------------------------
          Item                value                   Tolerance       Converged
          ---------------------------------------------------------------------
          Energy change      -0.0099417383            0.0000050000      NO
          RMS gradient        0.0035043769            0.0001000000      NO
          MAX gradient        0.0093721728            0.0003000000      NO
          RMS step            0.0420084025            0.0020000000      NO
          MAX step            0.1202136054            0.0040000000      NO
          ........................................................
          Max(Bonds)      0.0068      Max(Angles)    3.31
          Max(Dihed)        6.89      Max(Improp)    0.00
          ---------------------------------------------------------------------

The optimization has not yet converged - more geometry cycles are needed


    ---------------------------------------------------------------------------
                         Redundant Internal Coordinates
                            (Angstroem and degrees)

        Definition                    Value    dE/dq     Step     New-Value
    ----------------------------------------------------------------------------
     1. B(C   1,C   0)                1.5184  0.000458 -0.0012    1.5173   
     2. B(C   2,C   0)                1.5221  0.003367 -0.0068    1.5153   
     3. B(C   3,C   0)                1.5097 -0.002035  0.0036    1.5133   
     4. B(H   4,C   1)                1.1077  0.000792 -0.0014    1.1063   
     5. B(H   5,C   1)                1.1151  0.001535 -0.0035    1.1116   
     6. B(H   6,C   1)                1.1049 -0.000801  0.0016    1.1065   
     7. B(H   7,C   2)                1.1062 -0.002154  0.0046    1.1107   
     8. B(H   8,C   2)                1.1081  0.001267 -0.0026    1.1055   
     9. B(H   9,C   2)                1.1102  0.001679 -0.0037    1.1065   
    10. B(H  10,C   3)                1.1070 -0.000794  0.0017    1.1087   
    11. B(H  11,C   3)                1.1078  0.001322 -0.0028    1.1050   
    12. B(H  12,C   3)                1.1141  0.001314 -0.0029    1.1112   
    13. A(C   1,C   0,C   3)          115.44 -0.001417    2.05    117.49   
    14. A(C   2,C   0,C   3)          114.27  0.000813    1.40    115.68   
    15. A(C   1,C   0,C   2)          112.56 -0.006077    3.31    115.87   
    16. A(H   4,C   1,H   5)          104.33 -0.002498    0.94    105.27   
    17. A(H   5,C   1,H   6)          106.24 -0.000150   -0.07    106.17   
    18. A(H   4,C   1,H   6)          107.09 -0.002907    0.68    107.77   
    19. A(C   0,C   1,H   4)          113.06  0.003287   -0.83    112.24   
    20. A(C   0,C   1,H   5)          111.97 -0.000991    0.27    112.25   
    21. A(C   0,C   1,H   6)          113.48  0.002610   -0.80    112.68   
    22. A(H   7,C   2,H   9)          110.87  0.004028   -2.06    108.81   
    23. A(C   0,C   2,H   9)          112.02 -0.002104    0.32    112.34   
    24. A(H   7,C   2,H   8)          107.02 -0.000062    0.40    107.42   
    25. A(C   0,C   2,H   8)          108.61 -0.007145    2.35    110.96   
    26. A(H   8,C   2,H   9)          105.36 -0.000191    1.06    106.42   
    27. A(C   0,C   2,H   7)          112.56  0.004873   -1.58    110.98   
    28. A(H  11,C   3,H  12)          104.91 -0.001826    0.73    105.64   
    29. A(H  10,C   3,H  12)          105.30 -0.001385    0.29    105.59   
    30. A(C   0,C   3,H  12)          112.19 -0.001276    0.35    112.54   
    31. A(H  10,C   3,H  11)          106.77 -0.003637    0.85    107.62   
    32. A(C   0,C   3,H  11)          113.39  0.002585   -0.65    112.74   
    33. A(C   0,C   3,H  10)          113.56  0.004715   -1.32    112.24   
    34. D(H   6,C   1,C   0,C   2)    124.75 -0.003435    3.26    128.01   
    35. D(H   4,C   1,C   0,C   2)      2.53 -0.004140    3.64      6.16   
    36. D(H   6,C   1,C   0,C   3)     -8.92  0.003202   -3.36    -12.28   
    37. D(H   5,C   1,C   0,C   2)   -114.98 -0.002482    2.79   -112.18   
    38. D(H   4,C   1,C   0,C   3)   -131.15  0.002497   -2.98   -134.13   
    39. D(H   5,C   1,C   0,C   3)    111.35  0.004155   -3.82    107.52   
    40. D(H   7,C   2,C   0,C   1)    -81.54  0.005815   -3.91    -85.46   
    41. D(H   9,C   2,C   0,C   3)    -73.04 -0.009372    6.89    -66.15   
    42. D(H   9,C   2,C   0,C   1)    152.72 -0.001795   -0.01    152.71   
    43. D(H   8,C   2,C   0,C   3)    171.01 -0.003553    4.11    175.12   
    44. D(H   8,C   2,C   0,C   1)     36.77  0.004025   -2.79     33.98   
    45. D(H   7,C   2,C   0,C   3)     52.70 -0.001762    2.98     55.68   
    46. D(H  11,C   3,C   0,C   1)     -1.29 -0.005437    3.87      2.58   
    47. D(H  10,C   3,C   0,C   2)    -12.07  0.005342   -4.41    -16.48   
    48. D(H  10,C   3,C   0,C   1)    120.82 -0.004593    3.43    124.25   
    49. D(H  12,C   3,C   0,C   2)    107.19  0.005965   -4.71    102.47   
    50. D(H  12,C   3,C   0,C   1)   -119.92 -0.003970    3.13   -116.79   
    51. D(H  11,C   3,C   0,C   2)   -134.18  0.004498   -3.97   -138.15   
    ----------------------------------------------------------------------------

         *************************************************************
         *                GEOMETRY OPTIMIZATION CYCLE   3            *
         *************************************************************
---------------------------------
CARTESIAN COORDINATES (ANGSTROEM)
---------------------------------
  C      0.042975    0.008250   -0.224408
  C      0.560758    1.368867    0.203022
  C     -1.459370   -0.172733   -0.145605
  C      0.858225   -1.198121    0.188113
  H     -0.239006    2.008516    0.621527
  H      0.981349    1.945771   -0.648952
  H      1.367636    1.300551    0.957158
  H     -1.768815   -0.483864    0.874788
  H     -1.983699    0.772550   -0.377133
  H     -1.829904   -0.920078   -0.872549
  H      0.257742   -1.934772    0.758976
[...]

             **** THE GBW FILE WAS UPDATED (orca0.gbw) ****
             **** DENSITY FILE WAS UPDATED (orca0.scfp) ****
             **** ENERGY FILE WAS UPDATED (orca0.en.tmp) ****
             **** THE GBW FILE WAS UPDATED (orca0.gbw) ****
             **** DENSITY FILE WAS UPDATED (orca0.scfp) ****
----------------
ORBITAL ENERGIES
----------------
                 SPIN UP ORBITALS
  NO   OCC          E(Eh)            E(eV) 
   0   1.0000     -10.183218      -277.0994 
   1   1.0000     -10.169145      -276.7165 
   2   1.0000     -10.168942      -276.7110 
   3   1.0000     -10.168895      -276.7097 
   4   1.0000      -0.789149       -21.4738 
   5   1.0000      -0.677128       -18.4256 
   6   1.0000      -0.677078       -18.4242 
   7   1.0000      -0.526007       -14.3134 
   8   1.0000      -0.439628       -11.9629 
   9   1.0000      -0.435163       -11.8414 
  10   1.0000      -0.435145       -11.8409 
  11   1.0000      -0.381288       -10.3754 
  12   1.0000      -0.381233       -10.3739 
  13   1.0000      -0.362797        -9.8722 
  14   1.0000      -0.342074        -9.3083 
  15   1.0000      -0.342005        -9.3064 
  16   1.0000      -0.170565        -4.6413 
  17   0.0000       0.054406         1.4805 
  18   0.0000       0.104935         2.8554 
  19   0.0000       0.105589         2.8732 
  20   0.0000       0.121092         3.2951 
  21   0.0000       0.121234         3.2990 
  22   0.0000       0.132456         3.6043 
  23   0.0000       0.156602         4.2614 
  24   0.0000       0.156858         4.2683 
  25   0.0000       0.191242         5.2040 
  26   0.0000       0.206505         5.6193 
  27   0.0000       0.278409         7.5759 
  28   0.0000       0.279957         7.6180 
  29   0.0000       0.400934        10.9100 
  30   0.0000       0.402066        10.9408 
  31   0.0000       0.438990        11.9455 
  32   0.0000       0.473239        12.8775 
  33   0.0000       0.474255        12.9051 
  34   0.0000       0.476273        12.9600 
  35   0.0000       0.613496        16.6941 
  36   0.0000       0.621828        16.9208 
  37   0.0000       0.623053        16.9541 
  38   0.0000       0.639716        17.4076 
  39   0.0000       0.647212        17.6115 
  40   0.0000       0.664063        18.0701 
  41   0.0000       0.682328        18.5671 
  42   0.0000       0.682414        18.5694 
  43   0.0000       0.705958        19.2101 
  44   0.0000       0.706229        19.2175 
  45   0.0000       0.706308        19.2196 
  46   0.0000       0.731930        19.9168 
  47   0.0000       0.732240        19.9253 
  48   0.0000       0.764281        20.7971 
  49   0.0000       0.787818        21.4376 
  50   0.0000       0.788148        21.4466 
  51   0.0000       0.843160        22.9435 
  52   0.0000       1.014556        27.6075 
  53   0.0000       1.015763        27.6403 
  54   0.0000       1.430254        38.9192 
  55   0.0000       1.430389        38.9229 
  56   0.0000       1.724405        46.9234 
  57   0.0000       1.772906        48.2432 
  58   0.0000       1.773050        48.2471 
  59   0.0000       1.777494        48.3681 
  60   0.0000       1.979447        53.8635 
  61   0.0000       1.980130        53.8821 
  62   0.0000       1.980349        53.8880 
  63   0.0000       2.042192        55.5709 
  64   0.0000       2.042530        55.5801 
  65   0.0000       2.133237        58.0483 
  66   0.0000       2.155760        58.6612 
  67   0.0000       2.176475        59.2249 
  68   0.0000       2.176689        59.2307 
  69   0.0000       2.416707        65.7619 
  70   0.0000       2.416975        65.7692 
  71   0.0000       2.483099        67.5686 
  72   0.0000       2.732887        74.3656 
  73   0.0000       2.732982        74.3682 

                 SPIN DOWN ORBITALS
  NO   OCC          E(Eh)            E(eV) 
   0   1.0000     -10.170141      -276.7436 
   1   1.0000     -10.169941      -276.7382 
   2   1.0000     -10.169893      -276.7369 
   3   1.0000     -10.168933      -276.7107 
   4   1.0000      -0.772174       -21.0119 
   5   1.0000      -0.674760       -18.3612 
   6   1.0000      -0.674714       -18.3599 
   7   1.0000      -0.507980       -13.8228 
   8   1.0000      -0.431148       -11.7321 
   9   1.0000      -0.431124       -11.7315 
  10   1.0000      -0.419769       -11.4225 
  11   1.0000      -0.375310       -10.2127 
  12   1.0000      -0.375250       -10.2111 
  13   1.0000      -0.361686        -9.8420 
  14   1.0000      -0.337244        -9.1769 
  15   1.0000      -0.337179        -9.1751 
  16   0.0000      -0.030370        -0.8264 
  17   0.0000       0.055575         1.5123 
  18   0.0000       0.105939         2.8828 
  19   0.0000       0.106635         2.9017 
  20   0.0000       0.122585         3.3357 
  21   0.0000       0.122710         3.3391 
  22   0.0000       0.141161         3.8412 
  23   0.0000       0.159703         4.3457 
  24   0.0000       0.159953         4.3526 
  25   0.0000       0.191390         5.2080 
  26   0.0000       0.224601         6.1117 
  27   0.0000       0.284631         7.7452 
  28   0.0000       0.286183         7.7874 
  29   0.0000       0.402918        10.9639 
  30   0.0000       0.404046        10.9947 
  31   0.0000       0.460719        12.5368 
  32   0.0000       0.480091        13.0639 
  33   0.0000       0.481050        13.0900 
  34   0.0000       0.493096        13.4178 
  35   0.0000       0.623272        16.9601 
  36   0.0000       0.624515        16.9939 
  37   0.0000       0.648575        17.6486 
  38   0.0000       0.649256        17.6672 
  39   0.0000       0.658273        17.9125 
  40   0.0000       0.673107        18.3162 
  41   0.0000       0.687167        18.6988 
  42   0.0000       0.687347        18.7037 
  43   0.0000       0.708268        19.2729 
  44   0.0000       0.708541        19.2804 
  45   0.0000       0.715977        19.4827 
  46   0.0000       0.735338        20.0096 
  47   0.0000       0.735598        20.0166 
  48   0.0000       0.763986        20.7891 
  49   0.0000       0.792065        21.5532 
  50   0.0000       0.792325        21.5603 
  51   0.0000       0.852408        23.1952 
  52   0.0000       1.017569        27.6895 
  53   0.0000       1.018826        27.7237 
  54   0.0000       1.452478        39.5239 
  55   0.0000       1.452640        39.5283 
  56   0.0000       1.722045        46.8592 
  57   0.0000       1.776409        48.3385 
  58   0.0000       1.776602        48.3438 
  59   0.0000       1.806381        49.1541 
  60   0.0000       1.983860        53.9836 
  61   0.0000       1.984244        53.9940 
  62   0.0000       2.004179        54.5365 
  63   0.0000       2.051161        55.8149 
  64   0.0000       2.051499        55.8241 
  65   0.0000       2.135407        58.1074 
  66   0.0000       2.154893        58.6376 
  67   0.0000       2.180260        59.3279 
  68   0.0000       2.180504        59.3345 
  69   0.0000       2.439202        66.3740 
  70   0.0000       2.439435        66.3804 
  71   0.0000       2.511227        68.3340 
  72   0.0000       2.740435        74.5710 
  73   0.0000       2.740510        74.5731 

                    ********************************
                    * MULLIKEN POPULATION ANALYSIS *
                    ********************************

------------------------------------------
FOD BASED MULLIKEN REDUCED ORBITAL CHARGES
------------------------------------------
  0 C s       :     0.000000  s :     0.000000
      pz      :     0.000000  p :     0.000000
      px      :     0.000000
      py      :     0.000000
      dz2     :     0.000000  d :     0.000000
      dxz     :     0.000000
      dyz     :     0.000000
      dx2y2   :     0.000000
      dxy     :     0.000000
  1 C s       :    -0.000000  s :    -0.000000
      pz      :     0.000000  p :     0.000000
      px      :     0.000000
      py      :     0.000000
      dz2     :     0.000000  d :     0.000000
      dxz     :     0.000000
      dyz     :     0.000000
      dx2y2   :     0.000000
      dxy     :     0.000000
  2 C s       :    -0.000000  s :    -0.000000
      pz      :     0.000000  p :     0.000000
      px      :     0.000000
      py      :     0.000000
      dz2     :     0.000000  d :     0.000000
      dxz     :     0.000000
      dyz     :     0.000000
      dx2y2   :     0.000000
      dxy     :     0.000000
  3 C s       :    -0.000000  s :    -0.000000
      pz      :     0.000000  p :     0.000000
      px      :     0.000000
      py      :     0.000000
      dz2     :     0.000000  d :     0.000000
      dxz     :     0.000000
      dyz     :     0.000000
      dx2y2   :     0.000000
      dxy     :     0.000000
  4 H s       :     0.000000  s :     0.000000
  5 H s       :     0.000000  s :     0.000000
  6 H s       :     0.000000  s :     0.000000
  7 H s       :     0.000000  s :     0.000000
  8 H s       :     0.000000  s :     0.000000
  9 H s       :     0.000000  s :     0.000000
 10 H s       :     0.000000  s :     0.000000
 11 H s       :     0.000000  s :     0.000000
 12 H s       :     0.000000  s :     0.000000


                     *******************************
                     * LOEWDIN POPULATION ANALYSIS *
                     *******************************

-------------------------------------------
LOEWDIN ATOMIC CHARGES AND SPIN POPULATIONS
-------------------------------------------
   0 C :   -0.080188    0.820328
   1 C :   -0.312418   -0.023230
   2 C :   -0.313407   -0.023161
   3 C :   -0.312894   -0.023143
   4 H :    0.113577    0.012275
   5 H :    0.112162    0.058686
   6 H :    0.113450    0.012099
   7 H :    0.113632    0.012189
   8 H :    0.113858    0.012187
   9 H :    0.112570    0.058527
  10 H :    0.113682    0.012060
  11 H :    0.113707    0.012302
  12 H :    0.112266    0.058880

----------------------------------------------------
LOEWDIN REDUCED ORBITAL CHARGES AND SPIN POPULATIONS
----------------------------------------------------
CHARGE
  0 C s       :     2.904659  s :     2.904659
      pz      :     0.990580  p :     3.083130
      px      :     1.045734
      py      :     1.046816
      dz2     :     0.008135  d :     0.092399
      dxz     :     0.011139
      dyz     :     0.009144
      dx2y2   :     0.030491
      dxy     :     0.033489
  1 C s       :     2.946895  s :     2.946895
      pz      :     1.105772  p :     3.287494
      px      :     1.101862
      py      :     1.079860
      dz2     :     0.017723  d :     0.078029
      dxz     :     0.015556
      dyz     :     0.011058
      dx2y2   :     0.014040
      dxy     :     0.019652
  2 C s       :     2.947128  s :     2.947128
      pz      :     1.104158  p :     3.288352
      px      :     1.076167
      py      :     1.108027
      dz2     :     0.022763  d :     0.077927
      dxz     :     0.013170
      dyz     :     0.007615
      dx2y2   :     0.013835
      dxy     :     0.020542
  3 C s       :     2.947063  s :     2.947063
      pz      :     1.106589  p :     3.287856
      px      :     1.095868
      py      :     1.085399
      dz2     :     0.012292  d :     0.077976
      dxz     :     0.018303
      dyz     :     0.015016
      dx2y2   :     0.013498
      dxy     :     0.018866
  4 H s       :     0.886423  s :     0.886423
  5 H s       :     0.887838  s :     0.887838
  6 H s       :     0.886550  s :     0.886550
  7 H s       :     0.886368  s :     0.886368
  8 H s       :     0.886142  s :     0.886142
  9 H s       :     0.887430  s :     0.887430
 10 H s       :     0.886318  s :     0.886318
 11 H s       :     0.886293  s :     0.886293
 12 H s       :     0.887734  s :     0.887734

SPIN
  0 C s       :     0.041812  s :     0.041812
      pz      :     0.725570  p :     0.781593
      px      :     0.034781
      py      :     0.021242
      dz2     :    -0.001165  d :    -0.003077
      dxz     :    -0.000343
      dyz     :    -0.000101
      dx2y2   :    -0.000604
      dxy     :    -0.000865
  1 C s       :    -0.005749  s :    -0.005749
      pz      :    -0.013833  p :    -0.034328
      px      :    -0.006267
      py      :    -0.014228
      dz2     :     0.003330  d :     0.016847
      dxz     :     0.003805
      dyz     :     0.008260
      dx2y2   :     0.000542
      dxy     :     0.000910
  2 C s       :    -0.005747  s :    -0.005747
      pz      :    -0.014541  p :    -0.034257
      px      :    -0.015818
      py      :    -0.003898
      dz2     :     0.006836  d :     0.016843
      dxz     :     0.008327
      dyz     :     0.000564
      dx2y2   :     0.000713
      dxy     :     0.000403
  3 C s       :    -0.005737  s :    -0.005737
      pz      :    -0.013539  p :    -0.034273
      px      :    -0.008500
      py      :    -0.012234
      dz2     :     0.000918  d :     0.016867
      dxz     :     0.005686
      dyz     :     0.008393
      dx2y2   :     0.000297
      dxy     :     0.001574
  4 H s       :     0.012275  s :     0.012275
  5 H s       :     0.058686  s :     0.058686
  6 H s       :     0.012099  s :     0.012099
  7 H s       :     0.012189  s :     0.012189
  8 H s       :     0.012187  s :     0.012187
  9 H s       :     0.058527  s :     0.058527
 10 H s       :     0.012060  s :     0.012060
 11 H s       :     0.012302  s :     0.012302
 12 H s       :     0.058880  s :     0.058880


                      *****************************
                      * MAYER POPULATION ANALYSIS *
                      *****************************

  NA   - Mulliken gross atomic population
  ZA   - Total nuclear charge
  QA   - Mulliken gross atomic charge
  VA   - Mayer's total valence
  BVA  - Mayer's bonded valence
  FA   - Mayer's free valence

  ATOM       NA         ZA         QA         VA         BVA        FA
  0 C      6.1546     6.0000    -0.1546     4.2105     3.5199     0.6907
  1 C      6.2189     6.0000    -0.2189     3.9383     3.9349     0.0035
  2 C      6.2231     6.0000    -0.2231     3.9374     3.9339     0.0035
  3 C      6.2210     6.0000    -0.2210     3.9404     3.9369     0.0035
  4 H      0.9090     1.0000     0.0910     0.9591     0.9589     0.0002
  5 H      0.9103     1.0000     0.0897     0.9491     0.9441     0.0050
  6 H      0.9099     1.0000     0.0901     0.9596     0.9594     0.0002
  7 H      0.9092     1.0000     0.0908     0.9591     0.9589     0.0002
  8 H      0.9079     1.0000     0.0921     0.9588     0.9586     0.0002
  9 H      0.9082     1.0000     0.0918     0.9488     0.9438     0.0050
 10 H      0.9088     1.0000     0.0912     0.9590     0.9588     0.0002
 11 H      0.9088     1.0000     0.0912     0.9589     0.9587     0.0002
 12 H      0.9104     1.0000     0.0896     0.9490     0.9439     0.0051

  Mayer bond orders larger than 0.100000
B(  0-C ,  1-C ) :   1.1236 B(  0-C ,  2-C ) :   1.1208 B(  0-C ,  3-C ) :   1.1246 
B(  1-C ,  4-H ) :   0.9504 B(  1-C ,  5-H ) :   0.9295 B(  1-C ,  6-H ) :   0.9504 
B(  2-C ,  7-H ) :   0.9509 B(  2-C ,  8-H ) :   0.9506 B(  2-C ,  9-H ) :   0.9293 
B(  3-C , 10-H ) :   0.9505 B(  3-C , 11-H ) :   0.9502 B(  3-C , 12-H ) :   0.9292 


-------
TIMINGS
-------

Total SCF time: 0 days 0 hours 3 min 43 sec 

Total time                  ....     223.863 sec
Sum of individual times     ....     179.413 sec  ( 80.1%)

Fock matrix formation       ....     145.503 sec  ( 65.0%)
  XC integration            ....      65.172 sec  ( 44.8% of F)
    Basis function eval.    ....       0.551 sec  (  0.8% of XC)
    Density eval.           ....       0.357 sec  (  0.5% of XC)
    XC-Functional eval.     ....       0.245 sec  (  0.4% of XC)
    XC-Potential eval.      ....       0.457 sec  (  0.7% of XC)
Diagonalization             ....       3.668 sec  (  1.6%)
Density matrix formation    ....      12.498 sec  (  5.6%)
Population analysis         ....       7.711 sec  (  3.4%)
Initial guess               ....       0.004 sec  (  0.0%)
Orbital Transformation      ....       0.000 sec  (  0.0%)
Orbital Orthonormalization  ....       0.002 sec  (  0.0%)
DIIS solution               ....       7.132 sec  (  3.2%)
Grid generation             ....       2.897 sec  (  1.3%)


-------------------------------------------------------------------------------
                          DFT DISPERSION CORRECTION                            
                                                                               
                              DFTD3 V3.1  Rev 1                                
                          USING Becke-Johnson damping                          
-------------------------------------------------------------------------------
The B3LYP functional is recognized
Active option DFTDOPT                   ...         4   

molecular C6(AA) [au] = 1133.311281 


            DFT-D V3
 parameters
 s6 scaling factor         :     1.0000 
 a1 scaling factor         :     0.3981 
 s8 scaling factor         :     1.9889 
 a2 scaling factor         :     4.4211 
 ad hoc parameters k1-k3   :    16.0000     1.3333    -4.0000 

 Edisp/kcal,au: -8.703985406572  -0.013870682178 
 E6   /kcal   :  -4.310188135 
 E8   /kcal   :  -4.393797272 
 % E8         :  50.480292264 

-------------------------   ----------------
Dispersion correction           -0.013870682
-------------------------   ----------------


-------------------------   --------------------
FINAL SINGLE POINT ENERGY      -157.556990546459
-------------------------   --------------------

                                *** OPTIMIZATION RUN DONE ***

                            ***************************************
                            *     ORCA property calculations      *
                            ***************************************

                                    ---------------------
                                    Active property flags
                                    ---------------------
   (+) Dipole Moment


------------------------------------------------------------------------------
                       ORCA ELECTRIC PROPERTIES CALCULATION
------------------------------------------------------------------------------

Dipole Moment Calculation                       ... on
Quadrupole Moment Calculation                   ... off
Polarizability Calculation                      ... off
GBWName                                         ... orca0.gbw
Electron density file                           ... orca0.scfp
The origin for moment calculation is the CENTER OF MASS  = (-0.046218,  0.009294  0.308958)

-------------
DIPOLE MOMENT
-------------
                                X             Y             Z
Electronic contribution:     -0.09196       0.04758       0.59511
Nuclear contribution   :      0.10777      -0.05596      -0.68334
                        -----------------------------------------
Total Dipole Moment    :      0.01581      -0.00839      -0.08823
                        -----------------------------------------
Magnitude (a.u.)       :      0.09002
Magnitude (Debye)      :      0.22882



--------------------
Rotational spectrum 
--------------------
 
Rotational constants in cm-1:     0.264881     0.264719     0.143745 
Rotational constants in MHz :  7940.936235  7936.088576  4309.354083 

 Dipole components along the rotational axes: 
x,y,z [a.u.] :    -0.001946     0.000615    -0.090001 
x,y,z [Debye]:    -0.004945     0.001563    -0.228765 

 

Timings for individual modules:

Sum of individual times         ...     7602.561 sec (= 126.709 min)
GTO integral calculation        ...      172.643 sec (=   2.877 min)   2.3 %
SCF iterations                  ...     7196.017 sec (= 119.934 min)  94.7 %
SCF Gradient evaluation         ...      149.122 sec (=   2.485 min)   2.0 %
Geometry relaxation             ...       84.780 sec (=   1.413 min)   1.1 %
                             ****ORCA TERMINATED NORMALLY****
TOTAL RUN TIME: 0 days 2 hours 11 minutes 3 seconds 421 msec
