
                                 *****************
                                 * O   R   C   A *
                                 *****************

           --- An Ab Initio, DFT and Semiempirical electronic structure package ---

                  #######################################################
                  #                        -***-                        #
                  #          Department of theory and spectroscopy      #
                  #               Directorship: Frank Neese             #
                  #        Max Planck Institute fuer Kohlenforschung    #
                  #                Kaiser Wilhelm Platz 1               #
                  #                 D-45470 Muelheim/Ruhr               #
                  #                      Germany                        #
                  #                                                     #
                  #                  All rights reserved                #
                  #                        -***-                        #
                  #######################################################


                         Program Version 4.2.1 -  RELEASE  -


 With contributions from (in alphabetic order):
   Daniel Aravena         : Magnetic Suceptibility
   Michael Atanasov       : Ab Initio Ligand Field Theory (pilot matlab implementation)
   Alexander A. Auer      : GIAO ZORA, VPT2
   Ute Becker             : Parallelization
   Giovanni Bistoni       : ED, misc. LED, open-shell LED, HFLD
   Martin Brehm           : Molecular dynamics
   Dmytro Bykov           : SCF Hessian
   Vijay G. Chilkuri      : MRCI spin determinant printing, contributions to CSF-ICE
   Dipayan Datta          : RHF DLPNO-CCSD density
   Achintya Kumar Dutta   : EOM-CC, STEOM-CC
   Dmitry Ganyushin       : Spin-Orbit,Spin-Spin,Magnetic field MRCI
   Miquel Garcia          : C-PCM Hessian, Gaussian charge scheme
   Yang Guo               : DLPNO-NEVPT2, CIM, IAO-localization
   Andreas Hansen         : Spin unrestricted coupled pair/coupled cluster methods
   Benjamin Helmich-Paris : CASSCF linear response (MC-RPA)
   Lee Huntington         : MR-EOM, pCC
   Robert Izsak           : Overlap fitted RIJCOSX, COSX-SCS-MP3, EOM
   Christian Kollmar      : KDIIS, OOCD, Brueckner-CCSD(T), CCSD density
   Simone Kossmann        : Meta GGA functionals, TD-DFT gradient, OOMP2, MP2 Hessian
   Martin Krupicka        : AUTO-CI
   Lucas Lang             : DCDCAS
   Dagmar Lenk            : GEPOL surface, SMD
   Dimitrios Liakos       : Extrapolation schemes; Compound Job, initial MDCI parallelization
   Dimitrios Manganas     : Further ROCIS development; embedding schemes
   Dimitrios Pantazis     : SARC Basis sets
   Taras Petrenko         : DFT Hessian,TD-DFT gradient, ASA, ECA, R-Raman, ABS, FL, XAS/XES, NRVS
   Peter Pinski           : DLPNO-MP2, DLPNO-MP2 Gradient
   Christoph Reimann      : Effective Core Potentials
   Marius Retegan         : Local ZFS, SOC
   Christoph Riplinger    : Optimizer, TS searches, QM/MM, DLPNO-CCSD(T), (RO)-DLPNO pert. Triples
   Tobias Risthaus        : Range-separated hybrids, TD-DFT gradient, RPA, STAB
   Michael Roemelt        : Original ROCIS implementation
   Masaaki Saitow         : Open-shell DLPNO-CCSD energy and density
   Barbara Sandhoefer     : DKH picture change effects
   Avijit Sen             : IP-ROCIS
   Kantharuban Sivalingam : CASSCF convergence, NEVPT2, FIC-MRCI
   Bernardo de Souza      : ESD, SOC TD-DFT
   Georgi Stoychev        : AutoAux, RI-MP2 NMR
   Willem Van den Heuvel  : Paramagnetic NMR
   Boris Wezisla          : Elementary symmetry handling
   Frank Wennmohs         : Technical directorship


 We gratefully acknowledge several colleagues who have allowed us to
 interface, adapt or use parts of their codes:
   Stefan Grimme, W. Hujo, H. Kruse,             : VdW corrections, initial TS optimization,
                  C. Bannwarth                     DFT functionals, gCP, sTDA/sTD-DF
   Ed Valeev, F. Pavosevic, A. Kumar             : LibInt (2-el integral package), F12 methods
   Garnet Chan, S. Sharma, J. Yang, R. Olivares  : DMRG
   Ulf Ekstrom                                   : XCFun DFT Library
   Mihaly Kallay                                 : mrcc  (arbitrary order and MRCC methods)
   Andreas Klamt, Michael Diedenhofen            : otool_cosmo (COSMO solvation model)
   Jiri Pittner, Ondrej Demel                    : Mk-CCSD
   Frank Weinhold                                : gennbo (NPA and NBO analysis)
   Christopher J. Cramer and Donald G. Truhlar   : smd solvation model
   Lars Goerigk                                  : TD-DFT with DH, B97 family of functionals
   V. Asgeirsson, H. Jonsson                     : NEB implementation
   FAccTs GmbH                                   : IRC, NEB, NEB-TS, Multilevel, MM, QM/MM, CI optimization
   S Lehtola, MJT Oliveira, MAL Marques          : LibXC Library


 Your calculation uses the libint2 library for the computation of 2-el integrals
 For citations please refer to: http://libint.valeyev.net

 Your ORCA version has been built with support for libXC version: 4.2.3
 For citations please refer to: https://tddft.org/programs/libxc/

 This ORCA versions uses:
   CBLAS   interface :  Fast vector & matrix operations
   LAPACKE interface :  Fast linear algebra routines
   SCALAPACK package :  Parallel linear algebra routines


Your calculation utilizes the atom-pairwise dispersion correction
with the Becke-Johnson damping scheme (D3BJ)
Cite in your paper:
S.Grimme, S.Ehrlich, L.Goerigk, J Comput Chem, (2011), 32, 1456–1465 
S.Grimme, J.Antony, S.Ehrlich and H.Krieg, J.Chem.Phys., 132, (2010), 154104 
   

----- Orbital basis set information -----
Your calculation utilizes the basis: def2-SV(P)
   F. Weigend and R. Ahlrichs, Phys. Chem. Chem. Phys. 7, 3297 (2005).

----- AuxJ basis set information -----
Your calculation utilizes the auxiliary basis: def2/J
   F. Weigend, Phys. Chem. Chem. Phys. 8, 1057 (2006).

================================================================================
                                        WARNINGS
                       Please study these warnings very carefully!
================================================================================


WARNING: Geometry Optimization
  ===> : Switching off AutoStart
         For restart on a previous wavefunction, please use MOREAD

INFO   : the flag for use of LIBINT has been found!

================================================================================
                                       INPUT FILE
================================================================================
NAME = orca7.inp
|  1> ! UKS B3LYP def2-SV(P) def2/J D3BJ Opt
|  2> %scf Convergence VeryTight
|  3> SmearTemp 2000
|  4> maxiter 500
|  5> end
|  6> *xyz 0 2
|  7> C 0.024603 0.214771 -0.372798
|  8> C -1.024911 0.970544 0.382899
|  9> C 1.381332 0.232782 0.271012
| 10> C -0.37258 -1.246405 -0.453696
| 11> H -0.932805 2.062795 0.320312
| 12> H -0.989087 0.659953 1.434507
| 13> H -2.012992 0.658537 -0.029407
| 14> H 1.743671 1.243255 0.527407
| 15> H 2.089131 -0.181837 -0.491799
| 16> H 1.45545 -0.419731 1.171073
| 17> H -0.035461 -1.721106 -1.394692
| 18> H -1.47903 -1.373403 -0.426595
| 19> H 0.012885 -1.757647 0.455316
| 20> *
| 21> 
| 22>                          ****END OF INPUT****
================================================================================

                       *****************************
                       * Geometry Optimization Run *
                       *****************************

Geometry optimization settings:
Update method            Update   .... BFGS
Choice of coordinates    CoordSys .... Z-matrix Internals
Initial Hessian          InHess   .... Almoef's Model

Convergence Tolerances:
Energy Change            TolE     ....  5.0000e-06 Eh
Max. Gradient            TolMAXG  ....  3.0000e-04 Eh/bohr
RMS Gradient             TolRMSG  ....  1.0000e-04 Eh/bohr
Max. Displacement        TolMAXD  ....  4.0000e-03 bohr
RMS Displacement         TolRMSD  ....  2.0000e-03 bohr
Strict Convergence                ....  False
------------------------------------------------------------------------------
                        ORCA OPTIMIZATION COORDINATE SETUP
------------------------------------------------------------------------------

The optimization will be done in new redundant internal coordinates
Making redundant internal coordinates   ...  (new redundants) done
Evaluating the initial hessian          ...  (Almloef) done
Evaluating the coordinates              ...  done
Calculating the B-matrix                .... done
Calculating the G-matrix                .... done
Diagonalizing the G-matrix              .... done
The first mode is                       ....   18
The number of degrees of freedom        ....   33

    -----------------------------------------------------------------
                    Redundant Internal Coordinates


    -----------------------------------------------------------------
         Definition                    Initial Value    Approx d2E/dq
    -----------------------------------------------------------------
      1. B(C   1,C   0)                  1.4979         0.420307   
      2. B(C   2,C   0)                  1.5018         0.414287   
      3. B(C   3,C   0)                  1.5164         0.392777   
      4. B(H   4,C   1)                  1.0979         0.349783   
      5. B(H   5,C   1)                  1.0971         0.350828   
      6. B(H   6,C   1)                  1.1152         0.328272   
      7. B(H   7,C   2)                  1.1037         0.342465   
      8. B(H   8,C   2)                  1.1202         0.322327   
      9. B(H   9,C   2)                  1.1142         0.329504   
     10. B(H  10,C   3)                  1.1066         0.338853   
     11. B(H  11,C   3)                  1.1140         0.329657   
     12. B(H  12,C   3)                  1.1119         0.332301   
     13. A(C   1,C   0,C   3)          109.2434         0.373984   
     14. A(C   2,C   0,C   3)          105.7268         0.373055   
     15. A(C   1,C   0,C   2)          114.2445         0.377444   
     16. A(H   4,C   1,H   5)          109.4840         0.288335   
     17. A(H   5,C   1,H   6)          107.7048         0.285492   
     18. A(H   4,C   1,H   6)          109.3653         0.285360   
     19. A(C   0,C   1,H   4)          114.4822         0.329096   
     20. A(C   0,C   1,H   5)          108.5337         0.329258   
     21. A(C   0,C   1,H   6)          107.0439         0.325672   
     22. A(H   7,C   2,H   9)          109.0679         0.284588   
     23. A(C   0,C   2,H   9)          113.5390         0.325100   
     24. A(H   7,C   2,H   8)          106.8364         0.283616   
     25. A(C   0,C   2,H   8)          105.9295         0.323927   
     26. A(H   8,C   2,H   9)          106.9364         0.281923   
     27. A(C   0,C   2,H   7)          114.0259         0.327171   
     28. A(H  11,C   3,H  12)          105.7841         0.283279   
     29. A(H  10,C   3,H  12)          113.1016         0.284493   
     30. A(C   0,C   3,H  12)          107.9778         0.322715   
     31. A(H  10,C   3,H  11)          105.9241         0.284140   
     32. A(C   0,C   3,H  11)          111.6354         0.322293   
     33. A(C   0,C   3,H  10)          112.2685         0.323750   
     34. D(H   6,C   1,C   0,C   2)   -164.9612         0.013062   
     35. D(H   4,C   1,C   0,C   2)     73.6607         0.013062   
     36. D(H   6,C   1,C   0,C   3)    -46.7923         0.013062   
     37. D(H   5,C   1,C   0,C   2)    -48.9684         0.013062   
     38. D(H   4,C   1,C   0,C   3)   -168.1704         0.013062   
     39. D(H   5,C   1,C   0,C   3)     69.2005         0.013062   
     40. D(H   7,C   2,C   0,C   1)    -51.6866         0.012702   
     41. D(H   9,C   2,C   0,C   3)    -46.0856         0.012702   
     42. D(H   9,C   2,C   0,C   1)     74.0690         0.012702   
     43. D(H   8,C   2,C   0,C   3)     70.9647         0.012702   
     44. D(H   8,C   2,C   0,C   1)   -168.8807         0.012702   
     45. D(H   7,C   2,C   0,C   3)   -171.8411         0.012702   
     46. D(H  11,C   3,C   0,C   1)     28.3788         0.011469   
     47. D(H  10,C   3,C   0,C   2)    -89.4696         0.011469   
     48. D(H  10,C   3,C   0,C   1)    147.1534         0.011469   
     49. D(H  12,C   3,C   0,C   2)     35.8842         0.011469   
     50. D(H  12,C   3,C   0,C   1)    -87.4929         0.011469   
     51. D(H  11,C   3,C   0,C   2)    151.7558         0.011469   
    -----------------------------------------------------------------

Number of atoms                         .... 13
Number of degrees of freedom            .... 51

         *************************************************************
         *                GEOMETRY OPTIMIZATION CYCLE   1            *
         *************************************************************
---------------------------------
CARTESIAN COORDINATES (ANGSTROEM)
---------------------------------
  C      0.024603    0.214771   -0.372798
  C     -1.024911    0.970544    0.382899
  C      1.381332    0.232782    0.271012
  C     -0.372580   -1.246405   -0.453696
  H     -0.932805    2.062795    0.320312
  H     -0.989087    0.659953    1.434507
  H     -2.012992    0.658537   -0.029407
  H      1.743671    1.243255    0.527407
  H      2.089131   -0.181837   -0.491799
  H      1.455450   -0.419731    1.171073
  H     -0.035461   -1.721106   -1.394692
  H     -1.479030   -1.373403   -0.426595
  H      0.012885   -1.757647    0.455316

----------------------------
CARTESIAN COORDINATES (A.U.)
----------------------------
  NO LB      ZA    FRAG     MASS         X           Y           Z
   0 C     6.0000    0    12.011    0.046493    0.405858   -0.704486
   1 C     6.0000    0    12.011   -1.936801    1.834062    0.723574
   2 C     6.0000    0    12.011    2.610339    0.439894    0.512138
   3 C     6.0000    0    12.011   -0.704074   -2.355364   -0.857361
   4 H     1.0000    0     1.008   -1.762746    3.898118    0.605302
   5 H     1.0000    0     1.008   -1.869104    1.247130    2.710825
   6 H     1.0000    0     1.008   -3.804004    1.244455   -0.055571
   7 H     1.0000    0     1.008    3.295061    2.349411    0.996655
   8 H     1.0000    0     1.008    3.947885   -0.343622   -0.929365
   9 H     1.0000    0     1.008    2.750402   -0.793177    2.213007
  10 H     1.0000    0     1.008   -0.067012   -3.252419   -2.635586
  11 H     1.0000    0     1.008   -2.794962   -2.595356   -0.806148
  12 H     1.0000    0     1.008    0.024349   -3.321471    0.860423

--------------------------------
INTERNAL COORDINATES (ANGSTROEM)
--------------------------------
 C      0   0   0     0.000000000000     0.00000000     0.00000000
 C      1   0   0     1.497915357934     0.00000000     0.00000000
 C      1   2   0     1.501841966274   114.24447573     0.00000000
 C      1   2   3     1.516355540389   109.24338563   118.16890655
 H      2   1   3     1.097912972328   114.48215850    73.66073429
 H      2   1   3     1.097100503109   108.53367906   311.03164031
 H      2   1   3     1.115189969577   107.04393018   195.03877372
 H      3   1   2     1.103668261152   114.02591321   308.31343952
 H      3   1   2     1.120164702748   105.92953436   191.11927334
 H      3   1   2     1.114170766451   113.53897630    74.06895676
 H      4   1   2     1.106554893161   112.26853478   147.15335267
 H      4   1   2     1.114044235524   111.63535474    28.37877469
 H      4   1   2     1.111869805748   107.97776156   272.50710023

---------------------------
INTERNAL COORDINATES (A.U.)
---------------------------
 C      0   0   0     0.000000000000     0.00000000     0.00000000
 C      1   0   0     2.830649798290     0.00000000     0.00000000
 C      1   2   0     2.838070012688   114.24447573     0.00000000
 C      1   2   3     2.865496692990   109.24338563   118.16890655
 H      2   1   3     2.074754836579   114.48215850    73.66073429
 H      2   1   3     2.073219492262   108.53367906   311.03164031
 H      2   1   3     2.107403629797   107.04393018   195.03877372
 H      3   1   2     2.085630756279   114.02591321   308.31343952
 H      3   1   2     2.116804513079   105.92953436   191.11927334
 H      3   1   2     2.105477615014   113.53897630    74.06895676
 H      4   1   2     2.091085700224   112.26853478   147.15335267
 H      4   1   2     2.105238506215   111.63535474    28.37877469
 H      4   1   2     2.101129429439   107.97776156   272.50710023

---------------------
BASIS SET INFORMATION
---------------------
There are 2 groups of distinct atoms

 Group   1 Type C   : 7s4p1d contracted to 3s2p1d pattern {511/31/1}
 Group   2 Type H   : 4s contracted to 2s pattern {31}

Atom   0C    basis set group =>   1
Atom   1C    basis set group =>   1
Atom   2C    basis set group =>   1
Atom   3C    basis set group =>   1
Atom   4H    basis set group =>   2
Atom   5H    basis set group =>   2
Atom   6H    basis set group =>   2
Atom   7H    basis set group =>   2
Atom   8H    basis set group =>   2
Atom   9H    basis set group =>   2
Atom  10H    basis set group =>   2
Atom  11H    basis set group =>   2
Atom  12H    basis set group =>   2
---------------------------------
AUXILIARY/J BASIS SET INFORMATION
---------------------------------
There are 2 groups of distinct atoms

 Group   1 Type C   : 12s5p4d2f1g contracted to 6s4p3d1f1g pattern {711111/2111/211/2/1}
 Group   2 Type H   : 5s2p1d contracted to 3s1p1d pattern {311/2/1}

Atom   0C    basis set group =>   1
Atom   1C    basis set group =>   1
Atom   2C    basis set group =>   1
Atom   3C    basis set group =>   1
Atom   4H    basis set group =>   2
Atom   5H    basis set group =>   2
Atom   6H    basis set group =>   2
Atom   7H    basis set group =>   2
Atom   8H    basis set group =>   2
Atom   9H    basis set group =>   2
Atom  10H    basis set group =>   2
Atom  11H    basis set group =>   2
Atom  12H    basis set group =>   2
------------------------------------------------------------------------------
                           ORCA GTO INTEGRAL CALCULATION
------------------------------------------------------------------------------

                         BASIS SET STATISTICS AND STARTUP INFO

 # of primitive gaussian shells          ...   84
 # of primitive gaussian functions       ...  132
 # of contracted shells                  ...   42
 # of contracted basis functions         ...   74
 Highest angular momentum                ...    2
 Maximum contraction depth               ...    5
 Integral package used                   ... LIBINT
 Integral threshhold            Thresh   ...  1.000e-12
 Primitive cut-off              TCut     ...  1.000e-14


------------------------------ INTEGRAL EVALUATION ----------------------------


 * One electron integrals 
 Pre-screening matrix                    ... done
 Shell pair data                         ... done (   0.000 sec)

-------------------------------------------------------------------------------
                                 ORCA SCF
-------------------------------------------------------------------------------

------------
SCF SETTINGS
------------
Hamiltonian:
 Density Functional     Method          .... DFT(GTOs)
 Exchange Functional    Exchange        .... B88
   X-Alpha parameter    XAlpha          ....  0.666667
   Becke's b parameter  XBeta           ....  0.004200
 Correlation Functional Correlation     .... LYP
 LDA part of GGA corr.  LDAOpt          .... VWN-5
 Gradients option       PostSCFGGA      .... off
 Hybrid DFT is turned on
   Fraction HF Exchange ScalHFX         ....  0.200000
   Scaling of DF-GGA-X  ScalDFX         ....  0.720000
   Scaling of DF-GGA-C  ScalDFC         ....  0.810000
   Scaling of DF-LDA-C  ScalLDAC        ....  1.000000
   Perturbative correction              ....  0.000000
   Density functional embedding theory  .... OFF
   NL short-range parameter             ....  4.800000


General Settings:
 Integral files         IntName         .... orca7
 Hartree-Fock type      HFTyp           .... UHF
 Total Charge           Charge          ....    0
 Multiplicity           Mult            ....    2
 Number of Electrons    NEL             ....   33
 Basis Dimension        Dim             ....   74
 Nuclear Repulsion      ENuc            ....    126.8597552317 Eh

Convergence Acceleration:
 DIIS                   CNVDIIS         .... on
   Start iteration      DIISMaxIt       ....    12
   Startup error        DIISStart       ....  0.200000
   # of expansion vecs  DIISMaxEq       ....     5
   Bias factor          DIISBfac        ....   1.050
   Max. coefficient     DIISMaxC        ....  10.000
 Newton-Raphson         CNVNR           .... off
 SOSCF                  CNVSOSCF        .... off
 Level Shifting         CNVShift        .... on
   Level shift para.    LevelShift      ....    0.2500
   Turn off err/grad.   ShiftErr        ....    0.0010
 Zerner damping         CNVZerner       .... off
 Static damping         CNVDamp         .... on
   Fraction old density DampFac         ....    0.7000
   Max. Damping (<1)    DampMax         ....    0.9800
   Min. Damping (>=0)   DampMin         ....    0.0000
   Turn off err/grad.   DampErr         ....    0.1000
 Fernandez-Rico         CNVRico         .... off

SCF Procedure:
 Maximum # iterations   MaxIter         ....   500
 SCF integral mode      SCFMode         .... Direct
   Integral package                     .... LIBINT
 Reset frequency        DirectResetFreq ....    20
 Integral Threshold     Thresh          ....  1.000e-12 Eh
 Primitive CutOff       TCut            ....  1.000e-14 Eh

Convergence Tolerance:
 Convergence Check Mode ConvCheckMode   .... Total+1el-Energy
 Convergence forced     ConvForced      .... 0
 Energy Change          TolE            ....  1.000e-09 Eh
 1-El. energy change                    ....  1.000e-06 Eh
 DIIS Error             TolErr          ....  1.000e-08


Diagonalization of the overlap matrix:
Smallest eigenvalue                        ... 2.254e-03
Time for diagonalization                   ...    0.165 sec
Threshold for overlap eigenvalues          ... 1.000e-08
Number of eigenvalues below threshold      ... 0
Time for construction of square roots      ...    0.617 sec
Total time needed                          ...    0.783 sec

-------------------
DFT GRID GENERATION
-------------------

General Integration Accuracy     IntAcc      ...  4.340
Radial Grid Type                 RadialGrid  ... Gauss-Chebyshev
Angular Grid (max. acc.)         AngularGrid ... Lebedev-110
Angular grid pruning method      GridPruning ... 3 (G Style)
Weight generation scheme         WeightScheme... Becke
Basis function cutoff            BFCut       ...    1.0000e-12
Integration weight cutoff        WCut        ...    1.0000e-14
Grids for H and He will be reduced by one unit

# of grid points (after initial pruning)     ...  13770 (   0.0 sec)
# of grid points (after weights+screening)   ...  12864 (   0.0 sec)
nearest neighbour list constructed           ...    0.0 sec
Grid point re-assignment to atoms done       ...    0.0 sec
Grid point division into batches done        ...    0.0 sec
Reduced shell lists constructed in    0.1 sec

Total number of grid points                  ...    12864
Total number of batches                      ...      208
Average number of points per batch           ...       61
Average number of grid points per atom       ...      990
Average number of shells per batch           ...    37.30 (88.81%)
Average number of basis functions per batch  ...    66.56 (89.95%)
Average number of large shells per batch     ...    32.58 (87.34%)
Average number of large basis fcns per batch ...    57.73 (86.72%)
Maximum spatial batch extension              ...  20.98, 20.58, 22.10 au
Average spatial batch extension              ...   4.21,  4.09,  3.96 au

Time for grid setup =    1.211 sec

------------------------------
INITIAL GUESS: MODEL POTENTIAL
------------------------------
Loading Hartree-Fock densities                     ... done
Calculating cut-offs                               ... done
Setting up the integral package                    ... done
Initializing the effective Hamiltonian             ... done
Starting the Coulomb interaction                   ... done (   0.0 sec)
Reading the grid                                   ... done
Mapping shells                                     ... done
Starting the XC term evaluation                    ... done (   0.1 sec)
  promolecular density results
     # of electrons  =     33.003581593
     EX              =    -23.191377095
     EC              =     -1.032352236
     EX+EC           =    -24.223729331
Transforming the Hamiltonian                       ... done (   0.3 sec)
Diagonalizing the Hamiltonian                      ... done (   0.0 sec)
Back transforming the eigenvectors                 ... done (   0.0 sec)
Now organizing SCF variables                       ... done
                      ------------------
                      INITIAL GUESS DONE (   1.7 sec)
                      ------------------
--------------
SCF ITERATIONS
--------------
ITER       Energy         Delta-E        Max-DP      RMS-DP      [F,P]     Damp
               ***  Starting incremental Fock matrix formation  ***
  0   -157.3578554113   0.000000000000 0.04290319  0.00224831  0.1699611 0.7000
  1   -157.4333424010  -0.075486989708 0.02662881  0.00163140  0.0880905 0.7000
                               ***Turning on DIIS***
  2   -157.4637749427  -0.030432541728 0.03860907  0.00267484  0.0326608 0.0000
  3   -157.5044713137  -0.040696370964 0.01763112  0.00113989  0.0485522 0.0000
  4   -157.5182097086  -0.013738394845 0.00408801  0.00034230  0.0104184 0.0000
  5   -157.5189771919  -0.000767483355 0.00173697  0.00013188  0.0021275 0.0000
  6   -157.5190359862  -0.000058794285 0.00141535  0.00008508  0.0005904 0.0000
  7   -157.5190452635  -0.000009277268 0.00033330  0.00001299  0.0003091 0.0000
  8   -157.5190458581  -0.000000594613 0.00016279  0.00000520  0.0000953 0.0000
  9   -157.5190460090  -0.000000150912 0.00003920  0.00000175  0.0000144 0.0000
 10   -157.5190460225  -0.000000013502 0.00001459  0.00000058  0.0000042 0.0000
 11   -157.5190460244  -0.000000001932 0.00000688  0.00000028  0.0000016 0.0000
 12   -157.5190460249  -0.000000000451 0.00000186  0.00000009  0.0000011 0.0000
 13   -157.5190460250  -0.000000000077 0.00000179  0.00000009  0.0000004 0.0000
                 **** Energy Check signals convergence ****

 Fermi smearing  (ALPHA): E(HOMO(Eh)) = -0.326008 MUE = -0.075276 gap=   7.207 eV
 Fermi smearing   (BETA): E(HOMO(Eh)) = -0.320690 MUE = -0.187150 gap=   7.184 eV

N_FOD(alpha) =  0.000000
 N_FOD(beta) =  0.000000
       N_FOD =  0.000000

               *****************************************************
               *                     SUCCESS                       *
               *           SCF CONVERGED AFTER  14 CYCLES          *
               *****************************************************

Setting up the final grid:

General Integration Accuracy     IntAcc      ...  4.670
Radial Grid Type                 RadialGrid  ... Gauss-Chebyshev
Angular Grid (max. acc.)         AngularGrid ... Lebedev-302
Angular grid pruning method      GridPruning ... 3 (G Style)
Weight generation scheme         WeightScheme... Becke
Basis function cutoff            BFCut       ...    1.0000e-12
Integration weight cutoff        WCut        ...    1.0000e-14
Grids for H and He will be reduced by one unit

# of grid points (after initial pruning)     ...  55394 (   0.0 sec)
# of grid points (after weights+screening)   ...  51145 (   0.1 sec)
nearest neighbour list constructed           ...    0.0 sec
Grid point re-assignment to atoms done       ...    0.0 sec
Grid point division into batches done        ...    0.2 sec
Reduced shell lists constructed in    0.4 sec

Total number of grid points                  ...    51145
Total number of batches                      ...      805
Average number of points per batch           ...       63
Average number of grid points per atom       ...     3934
Average number of shells per batch           ...    34.99 (83.31%)
Average number of basis functions per batch  ...    62.23 (84.10%)
Average number of large shells per batch     ...    29.94 (85.56%)
Average number of large basis fcns per batch ...    52.72 (84.72%)
Maximum spatial batch extension              ...  22.21, 18.99, 20.73 au
Average spatial batch extension              ...   2.63,  2.65,  2.59 au

Final grid set up in    1.8 sec
Final integration                            ... done (   2.2 sec)
Change in XC energy                          ...     0.000417721
Integrated number of electrons               ...    32.999894225
Previous integrated no of electrons          ...    33.003288868

----------------
TOTAL SCF ENERGY
----------------

Total Energy       :         -157.51862830 Eh           -4286.29979 eV

Components:
Nuclear Repulsion  :          126.85975523 Eh            3452.02944 eV
Electronic Energy  :         -284.37838354 Eh           -7738.32923 eV
One Electron Energy:         -461.25972163 Eh          -12551.51513 eV
Two Electron Energy:          176.88133810 Eh            4813.18591 eV

Virial components:
Potential Energy   :         -313.39525462 Eh           -8527.91843 eV
Kinetic Energy     :          155.87662632 Eh            4241.61864 eV
Virial Ratio       :            2.01053398


DFT components:
N(Alpha)           :       16.999950846003 electrons
N(Beta)            :       15.999943378995 electrons
N(Total)           :       32.999894224998 electrons
E(X)               :      -18.885310921123 Eh       
E(C)               :       -1.222300227171 Eh       
E(XC)              :      -20.107611148294 Eh       
DFET-embed. en.    :        0.000000000000 Eh       

---------------
SCF CONVERGENCE
---------------

  Last Energy change         ...   -2.5096e-11  Tolerance :   1.0000e-09
  Last MAX-Density change    ...    3.3948e-07  Tolerance :   1.0000e-08
  Last RMS-Density change    ...    1.6822e-08  Tolerance :   1.0000e-09
  Last DIIS Error            ...    2.1621e-07  Tolerance :   1.0000e-08

             **** THE GBW FILE WAS UPDATED (orca7.gbw) ****
             **** DENSITY FILE WAS UPDATED (orca7.scfp) ****
             **** ENERGY FILE WAS UPDATED (orca7.en.tmp) ****
             **** THE GBW FILE WAS UPDATED (orca7.gbw) ****
             **** DENSITY FILE WAS UPDATED (orca7.scfp) ****
----------------
ORBITAL ENERGIES
----------------
                 SPIN UP ORBITALS
  NO   OCC          E(Eh)            E(eV) 
   0   1.0000     -10.192756      -277.3590 
   1   1.0000     -10.168568      -276.7008 
   2   1.0000     -10.168310      -276.6938 
   3   1.0000     -10.167723      -276.6778 
   4   1.0000      -0.802250       -21.8303 
   5   1.0000      -0.679483       -18.4897 
   6   1.0000      -0.667343       -18.1593 
   7   1.0000      -0.527428       -14.3520 
   8   1.0000      -0.455668       -12.3994 
   9   1.0000      -0.437068       -11.8932 
  10   1.0000      -0.427748       -11.6396 
  11   1.0000      -0.396499       -10.7893 
  12   1.0000      -0.382930       -10.4200 
  13   1.0000      -0.350973        -9.5504 
  14   1.0000      -0.329294        -8.9605 
  15   1.0000      -0.326008        -8.8711 
  16   1.0000      -0.207710        -5.6521 
  17   0.0000       0.057157         1.5553 
  18   0.0000       0.102363         2.7854 
  19   0.0000       0.112129         3.0512 
  20   0.0000       0.115035         3.1303 
  21   0.0000       0.122477         3.3328 
  22   0.0000       0.131141         3.5685 
  23   0.0000       0.152011         4.1364 
  24   0.0000       0.167665         4.5624 
  25   0.0000       0.182931         4.9778 
  26   0.0000       0.209505         5.7009 
  27   0.0000       0.256905         6.9907 
  28   0.0000       0.274716         7.4754 
  29   0.0000       0.398915        10.8550 
  30   0.0000       0.428443        11.6585 
  31   0.0000       0.441014        12.0006 
  32   0.0000       0.450071        12.2471 
  33   0.0000       0.481739        13.1088 
  34   0.0000       0.519521        14.1369 
  35   0.0000       0.577587        15.7169 
  36   0.0000       0.613764        16.7014 
  37   0.0000       0.649206        17.6658 
  38   0.0000       0.655364        17.8334 
  39   0.0000       0.658150        17.9092 
  40   0.0000       0.667532        18.1645 
  41   0.0000       0.683937        18.6109 
  42   0.0000       0.692205        18.8359 
  43   0.0000       0.703146        19.1336 
  44   0.0000       0.707212        19.2442 
  45   0.0000       0.714726        19.4487 
  46   0.0000       0.722771        19.6676 
  47   0.0000       0.748427        20.3657 
  48   0.0000       0.757175        20.6038 
  49   0.0000       0.778360        21.1802 
  50   0.0000       0.793196        21.5840 
  51   0.0000       0.840064        22.8593 
  52   0.0000       1.012113        27.5410 
  53   0.0000       1.072935        29.1960 
  54   0.0000       1.406758        38.2798 
  55   0.0000       1.422108        38.6975 
  56   0.0000       1.710585        46.5474 
  57   0.0000       1.748959        47.5916 
  58   0.0000       1.779605        48.4255 
  59   0.0000       1.798917        48.9510 
  60   0.0000       1.900196        51.7070 
  61   0.0000       1.957401        53.2636 
  62   0.0000       2.004451        54.5439 
  63   0.0000       2.047224        55.7078 
  64   0.0000       2.071751        56.3752 
  65   0.0000       2.129968        57.9594 
  66   0.0000       2.149943        58.5029 
  67   0.0000       2.151402        58.5426 
  68   0.0000       2.193674        59.6929 
  69   0.0000       2.412588        65.6498 
  70   0.0000       2.446527        66.5734 
  71   0.0000       2.502725        68.1026 
  72   0.0000       2.684443        73.0474 
  73   0.0000       2.705150        73.6109 

                 SPIN DOWN ORBITALS
  NO   OCC          E(Eh)            E(eV) 
   0   1.0000     -10.177885      -276.9543 
   1   1.0000     -10.168993      -276.7124 
   2   1.0000     -10.168559      -276.7006 
   3   1.0000     -10.168158      -276.6896 
   4   1.0000      -0.787466       -21.4280 
   5   1.0000      -0.676707       -18.4141 
   6   1.0000      -0.665185       -18.1006 
   7   1.0000      -0.509862       -13.8740 
   8   1.0000      -0.439411       -11.9570 
   9   1.0000      -0.433248       -11.7893 
  10   1.0000      -0.424034       -11.5386 
  11   1.0000      -0.390287       -10.6203 
  12   1.0000      -0.378240       -10.2924 
  13   1.0000      -0.349932        -9.5221 
  14   1.0000      -0.323767        -8.8101 
  15   1.0000      -0.320690        -8.7264 
  16   0.0000      -0.056686        -1.5425 
  17   0.0000       0.059778         1.6267 
  18   0.0000       0.103893         2.8271 
  19   0.0000       0.113304         3.0832 
  20   0.0000       0.117673         3.2021 
  21   0.0000       0.128720         3.5026 
  22   0.0000       0.132035         3.5929 
  23   0.0000       0.154508         4.2044 
  24   0.0000       0.172391         4.6910 
  25   0.0000       0.183487         4.9929 
  26   0.0000       0.217777         5.9260 
  27   0.0000       0.268522         7.3069 
  28   0.0000       0.285285         7.7630 
  29   0.0000       0.401170        10.9164 
  30   0.0000       0.433092        11.7850 
  31   0.0000       0.444980        12.1085 
  32   0.0000       0.460321        12.5260 
  33   0.0000       0.502196        13.6655 
  34   0.0000       0.553533        15.0624 
  35   0.0000       0.589058        16.0291 
  36   0.0000       0.624327        16.9888 
  37   0.0000       0.652665        17.7599 
  38   0.0000       0.658787        17.9265 
  39   0.0000       0.663487        18.0544 
  40   0.0000       0.674738        18.3605 
  41   0.0000       0.688670        18.7396 
  42   0.0000       0.695038        18.9129 
  43   0.0000       0.708025        19.2663 
  44   0.0000       0.710865        19.3436 
  45   0.0000       0.718234        19.5441 
  46   0.0000       0.726103        19.7583 
  47   0.0000       0.750400        20.4194 
  48   0.0000       0.760762        20.7014 
  49   0.0000       0.780686        21.2436 
  50   0.0000       0.804744        21.8982 
  51   0.0000       0.846466        23.0335 
  52   0.0000       1.016249        27.6535 
  53   0.0000       1.076083        29.2817 
  54   0.0000       1.422017        38.6950 
  55   0.0000       1.438784        39.1513 
  56   0.0000       1.741876        47.3989 
  57   0.0000       1.755613        47.7727 
  58   0.0000       1.784693        48.5640 
  59   0.0000       1.804607        49.1058 
  60   0.0000       1.916356        52.1467 
  61   0.0000       1.969947        53.6050 
  62   0.0000       2.011326        54.7310 
  63   0.0000       2.055877        55.9433 
  64   0.0000       2.079129        56.5760 
  65   0.0000       2.131226        57.9936 
  66   0.0000       2.150857        58.5278 
  67   0.0000       2.151875        58.5555 
  68   0.0000       2.198558        59.8258 
  69   0.0000       2.439733        66.3885 
  70   0.0000       2.469402        67.1958 
  71   0.0000       2.524599        68.6978 
  72   0.0000       2.699113        73.4466 
  73   0.0000       2.719439        73.9997 

                    ********************************
                    * MULLIKEN POPULATION ANALYSIS *
                    ********************************

------------------------------------------
FOD BASED MULLIKEN REDUCED ORBITAL CHARGES
------------------------------------------
  0 C s       :     0.000000  s :     0.000000
      pz      :     0.000000  p :     0.000000
      px      :     0.000000
      py      :     0.000000
      dz2     :     0.000000  d :     0.000000
      dxz     :     0.000000
      dyz     :     0.000000
      dx2y2   :     0.000000
      dxy     :     0.000000
  1 C s       :    -0.000000  s :    -0.000000
      pz      :     0.000000  p :     0.000000
      px      :     0.000000
      py      :     0.000000
      dz2     :     0.000000  d :     0.000000
      dxz     :     0.000000
      dyz     :     0.000000
      dx2y2   :     0.000000
      dxy     :     0.000000
  2 C s       :    -0.000000  s :    -0.000000
      pz      :     0.000000  p :     0.000000
      px      :     0.000000
      py      :     0.000000
      dz2     :     0.000000  d :     0.000000
      dxz     :     0.000000
      dyz     :     0.000000
      dx2y2   :     0.000000
      dxy     :     0.000000
  3 C s       :    -0.000000  s :    -0.000000
      pz      :     0.000000  p :     0.000000
      px      :     0.000000
      py      :     0.000000
      dz2     :     0.000000  d :     0.000000
      dxz     :     0.000000
      dyz     :     0.000000
      dx2y2   :     0.000000
      dxy     :     0.000000
  4 H s       :     0.000000  s :     0.000000
  5 H s       :     0.000000  s :     0.000000
  6 H s       :     0.000000  s :     0.000000
  7 H s       :     0.000000  s :     0.000000
  8 H s       :     0.000000  s :     0.000000
  9 H s       :     0.000000  s :     0.000000
 10 H s       :     0.000000  s :     0.000000
 11 H s       :     0.000000  s :     0.000000
 12 H s       :     0.000000  s :     0.000000


                     *******************************
                     * LOEWDIN POPULATION ANALYSIS *
                     *******************************

-------------------------------------------
LOEWDIN ATOMIC CHARGES AND SPIN POPULATIONS
-------------------------------------------
   0 C :   -0.069533    0.841190
   1 C :   -0.316897   -0.003420
   2 C :   -0.318451   -0.010613
   3 C :   -0.315818   -0.010460
   4 H :    0.114727    0.010614
   5 H :    0.119086    0.050626
   6 H :    0.110782    0.002752
   7 H :    0.107376    0.001772
   8 H :    0.116489    0.013902
   9 H :    0.112605    0.047302
  10 H :    0.118777    0.017197
  11 H :    0.106068    0.001086
  12 H :    0.114789    0.038051

----------------------------------------------------
LOEWDIN REDUCED ORBITAL CHARGES AND SPIN POPULATIONS
----------------------------------------------------
CHARGE
  0 C s       :     2.936608  s :     2.936608
      pz      :     0.970228  p :     3.036677
      px      :     1.039111
      py      :     1.027338
      dz2     :     0.010819  d :     0.096247
      dxz     :     0.022671
      dyz     :     0.010385
      dx2y2   :     0.030748
      dxy     :     0.021624
  1 C s       :     2.952485  s :     2.952485
      pz      :     1.094488  p :     3.286263
      px      :     1.089958
      py      :     1.101817
      dz2     :     0.023184  d :     0.078149
      dxz     :     0.012590
      dyz     :     0.007870
      dx2y2   :     0.024509
      dxy     :     0.009997
  2 C s       :     2.957514  s :     2.957514
      pz      :     1.093908  p :     3.283439
      px      :     1.083264
      py      :     1.106266
      dz2     :     0.010628  d :     0.077498
      dxz     :     0.019666
      dyz     :     0.016823
      dx2y2   :     0.016675
      dxy     :     0.013706
  3 C s       :     2.961049  s :     2.961049
      pz      :     1.102792  p :     3.279255
      px      :     1.104513
      py      :     1.071950
      dz2     :     0.015921  d :     0.075514
      dxz     :     0.006494
      dyz     :     0.020791
      dx2y2   :     0.021717
      dxy     :     0.010590
  4 H s       :     0.885273  s :     0.885273
  5 H s       :     0.880914  s :     0.880914
  6 H s       :     0.889218  s :     0.889218
  7 H s       :     0.892624  s :     0.892624
  8 H s       :     0.883511  s :     0.883511
  9 H s       :     0.887395  s :     0.887395
 10 H s       :     0.881223  s :     0.881223
 11 H s       :     0.893932  s :     0.893932
 12 H s       :     0.885211  s :     0.885211

SPIN
  0 C s       :     0.089432  s :     0.089432
      pz      :     0.616222  p :     0.754359
      px      :     0.022366
      py      :     0.115772
      dz2     :     0.000086  d :    -0.002601
      dxz     :    -0.001425
      dyz     :    -0.000044
      dx2y2   :    -0.000956
      dxy     :    -0.000263
  1 C s       :    -0.000342  s :    -0.000342
      pz      :    -0.005764  p :    -0.015456
      px      :    -0.004447
      py      :    -0.005245
      dz2     :     0.008450  d :     0.012377
      dxz     :     0.001808
      dyz     :     0.000248
      dx2y2   :     0.000595
      dxy     :     0.001276
  2 C s       :    -0.000417  s :    -0.000417
      pz      :    -0.008213  p :    -0.022027
      px      :    -0.009672
      py      :    -0.004141
      dz2     :     0.003618  d :     0.011832
      dxz     :     0.003679
      dyz     :     0.002415
      dx2y2   :     0.001449
      dxy     :     0.000670
  3 C s       :    -0.001330  s :    -0.001330
      pz      :    -0.007727  p :    -0.020064
      px      :    -0.001897
      py      :    -0.010440
      dz2     :     0.000273  d :     0.010934
      dxz     :     0.000127
      dyz     :     0.009806
      dx2y2   :     0.000477
      dxy     :     0.000251
  4 H s       :     0.010614  s :     0.010614
  5 H s       :     0.050626  s :     0.050626
  6 H s       :     0.002752  s :     0.002752
  7 H s       :     0.001772  s :     0.001772
  8 H s       :     0.013902  s :     0.013902
  9 H s       :     0.047302  s :     0.047302
 10 H s       :     0.017197  s :     0.017197
 11 H s       :     0.001086  s :     0.001086
 12 H s       :     0.038051  s :     0.038051


                      *****************************
                      * MAYER POPULATION ANALYSIS *
                      *****************************

  NA   - Mulliken gross atomic population
  ZA   - Total nuclear charge
  QA   - Mulliken gross atomic charge
  VA   - Mayer's total valence
  BVA  - Mayer's bonded valence
  FA   - Mayer's free valence

  ATOM       NA         ZA         QA         VA         BVA        FA
  0 C      6.1000     6.0000    -0.1000     4.1176     3.3876     0.7300
  1 C      6.2376     6.0000    -0.2376     3.9230     3.9205     0.0025
  2 C      6.2485     6.0000    -0.2485     3.9204     3.9180     0.0024
  3 C      6.2597     6.0000    -0.2597     3.9055     3.9032     0.0023
  4 H      0.8967     1.0000     0.1033     0.9551     0.9549     0.0001
  5 H      0.9105     1.0000     0.0895     0.9599     0.9557     0.0042
  6 H      0.9087     1.0000     0.0913     0.9602     0.9601     0.0000
  7 H      0.9094     1.0000     0.0906     0.9563     0.9563     0.0000
  8 H      0.9037     1.0000     0.0963     0.9526     0.9524     0.0002
  9 H      0.9058     1.0000     0.0942     0.9628     0.9590     0.0037
 10 H      0.8949     1.0000     0.1051     0.9540     0.9537     0.0003
 11 H      0.9143     1.0000     0.0857     0.9636     0.9636     0.0000
 12 H      0.9102     1.0000     0.0898     0.9669     0.9645     0.0024

  Mayer bond orders larger than 0.100000
B(  0-C ,  1-C ) :   1.1003 B(  0-C ,  2-C ) :   1.1022 B(  0-C ,  3-C ) :   1.0677 
B(  1-C ,  4-H ) :   0.9526 B(  1-C ,  5-H ) :   0.9293 B(  1-C ,  6-H ) :   0.9577 
B(  2-C ,  7-H ) :   0.9571 B(  2-C ,  8-H ) :   0.9552 B(  2-C ,  9-H ) :   0.9255 
B(  3-C , 10-H ) :   0.9528 B(  3-C , 11-H ) :   0.9585 B(  3-C , 12-H ) :   0.9368 


-------
TIMINGS
-------

Total SCF time: 0 days 0 hours 1 min 53 sec 

Total time                  ....     113.936 sec
Sum of individual times     ....      99.830 sec  ( 87.6%)

Fock matrix formation       ....      89.374 sec  ( 78.4%)
  XC integration            ....      43.943 sec  ( 49.2% of F)
    Basis function eval.    ....       0.958 sec  (  2.2% of XC)
    Density eval.           ....       0.661 sec  (  1.5% of XC)
    XC-Functional eval.     ....       0.427 sec  (  1.0% of XC)
    XC-Potential eval.      ....       0.963 sec  (  2.2% of XC)
Diagonalization             ....       0.042 sec  (  0.0%)
Density matrix formation    ....       4.543 sec  (  4.0%)
Population analysis         ....       1.154 sec  (  1.0%)
Initial guess               ....       0.496 sec  (  0.4%)
Orbital Transformation      ....       0.000 sec  (  0.0%)
Orbital Orthonormalization  ....       0.000 sec  (  0.0%)
DIIS solution               ....       1.191 sec  (  1.0%)
Grid generation             ....       3.030 sec  (  2.7%)


-------------------------------------------------------------------------------
                          DFT DISPERSION CORRECTION                            
                                                                               
                              DFTD3 V3.1  Rev 1                                
                          USING Becke-Johnson damping                          
-------------------------------------------------------------------------------
The B3LYP functional is recognized
Active option DFTDOPT                   ...         4   

molecular C6(AA) [au] = 1132.516033 


            DFT-D V3
 parameters
 s6 scaling factor         :     1.0000 
 a1 scaling factor         :     0.3981 
 s8 scaling factor         :     1.9889 
 a2 scaling factor         :     4.4211 
 ad hoc parameters k1-k3   :    16.0000     1.3333    -4.0000 

 Edisp/kcal,au: -9.103814756434  -0.014507850736 
 E6   /kcal   :  -4.509688950 
 E8   /kcal   :  -4.594125806 
 % E8         :  50.463744368 

-------------------------   ----------------
Dispersion correction           -0.014507851
-------------------------   ----------------


-------------------------   --------------------
FINAL SINGLE POINT ENERGY      -157.533136155110
-------------------------   --------------------

------------------------------------------------------------------------------
                         ORCA SCF GRADIENT CALCULATION
------------------------------------------------------------------------------

Gradient of the Kohn-Sham DFT energy:
Kohn-Sham wavefunction type      ... UKS
Hartree-Fock exchange scaling    ...    0.200
Number of operators              ...    2
Number of atoms                  ...   13
Basis set dimensions             ...   74
Integral neglect threshold       ... 1.0e-12
Integral primitive cutoff        ... 1.0e-14

Nuclear repulsion gradient       ... done
One Electron Gradient            ... done
Pre-screening matrix             ... done
Starting the two electron gradient:
Two electron gradient done
Exchange-correlation gradient    ... done
Dispersion correction            ... done

------------------
CARTESIAN GRADIENT
------------------

   1   C   :    0.003400524    0.027160526   -0.046319363
   2   C   :    0.013850052   -0.003890883    0.024535217
   3   C   :   -0.024035073   -0.013033815    0.027331401
   4   C   :    0.019249725   -0.000188667    0.016416043
   5   H   :   -0.001194307   -0.005671295   -0.002318088
   6   H   :    0.000785158    0.000122904   -0.009766846
   7   H   :   -0.001432903   -0.009108584   -0.006237465
   8   H   :   -0.000049646   -0.001474691   -0.001626821
   9   H   :   -0.002351691   -0.001402571   -0.009856072
  10   H   :    0.003732981   -0.003882169    0.001669224
  11   H   :   -0.006033618    0.005864032   -0.004704222
  12   H   :   -0.004582601   -0.000287621    0.002917221
  13   H   :   -0.001338601    0.005792834    0.007959772

Difference to translation invariance:
           :   -0.0000000000   -0.0000000000    0.0000000000

Norm of the cartesian gradient     ...    0.0803723488
RMS gradient                       ...    0.0128698758
MAX gradient                       ...    0.0463193627

-------
TIMINGS
-------

Total SCF gradient time            ...        4.352 sec

One electron gradient       ....       0.028 sec  (  0.6%)
Prescreening matrices       ....       0.026 sec  (  0.6%)
Two electron gradient       ....       1.382 sec  ( 31.8%)
XC gradient                 ....       2.707 sec  ( 62.2%)
------------------------------------------------------------------------------
                         ORCA GEOMETRY RELAXATION STEP
------------------------------------------------------------------------------

Reading the OPT-File                    .... done
Getting information on internals        .... done
Copying old internal coords+grads       .... done
Making the new internal coordinates     .... (new redundants).... done
Validating the new internal coordinates .... (new redundants).... done
Calculating the B-matrix                .... done
Calculating the G,G- and P matrices     .... done
Transforming gradient to internals      .... done
Projecting the internal gradient        .... done
Number of atoms                         ....  13
Number of internal coordinates          ....  51
Current Energy                          ....  -157.533136155 Eh
Current gradient norm                   ....     0.080372349 Eh/bohr
Maximum allowed component of the step   ....  0.300
Current trust radius                    ....  0.300
Evaluating the initial hessian          ....  (Almloef) done
Projecting the Hessian                  .... done
Forming the augmented Hessian           .... done
Diagonalizing the augmented Hessian     .... done
Last element of RFO vector              ....  0.882539674
Lowest eigenvalues of augmented Hessian:
 -0.024248716  0.011717893  0.012807993  0.013346068  0.063746377
Length of the computed step             ....  0.532823575
Warning: the length of the step is outside the trust region - taking restricted step instead
The input lambda is                     ....    -0.024249
   iter:   1  x=   -0.047957  g=    8.178493 f(x)=     0.193901
   iter:   2  x=   -0.070007  g=    3.235204 f(x)=     0.071334
   iter:   3  x=   -0.081112  g=    1.720968 f(x)=     0.019111
   iter:   4  x=   -0.082924  g=    1.316266 f(x)=     0.002386
   iter:   5  x=   -0.082963  g=    1.263047 f(x)=     0.000049
   iter:   6  x=   -0.082963  g=    1.261948 f(x)=     0.000000
   iter:   7  x=   -0.082963  g=    1.261948 f(x)=     0.000000
The output lambda is                    ....    -0.082963 (7 iterations)
The final length of the internal step   ....  0.300000000
Converting the step to cartesian space:
 Initial RMS(Int)=    0.0420084025
Transforming coordinates:
 Iter   0:  RMS(Cart)=    0.0782442826 RMS(Int)=    0.0426039531
 Iter   1:  RMS(Cart)=    0.0037341358 RMS(Int)=    0.0020077864
 Iter   2:  RMS(Cart)=    0.0001370434 RMS(Int)=    0.0000862554
 Iter   3:  RMS(Cart)=    0.0000114113 RMS(Int)=    0.0000078758
 Iter   4:  RMS(Cart)=    0.0000006560 RMS(Int)=    0.0000003948
 Iter   5:  RMS(Cart)=    0.0000000484 RMS(Int)=    0.0000000376
done
Storing new coordinates                 .... done

                                .--------------------.
          ----------------------|Geometry convergence|-------------------------
          Item                value                   Tolerance       Converged
          ---------------------------------------------------------------------
          RMS gradient        0.0080061183            0.0001000000      NO
          MAX gradient        0.0166206563            0.0003000000      NO
          RMS step            0.0420084025            0.0020000000      NO
          MAX step            0.0938602920            0.0040000000      NO
          ........................................................
          Max(Bonds)      0.0154      Max(Angles)    4.57
          Max(Dihed)        5.38      Max(Improp)    0.00
          ---------------------------------------------------------------------

The optimization has not yet converged - more geometry cycles are needed


    ---------------------------------------------------------------------------
                         Redundant Internal Coordinates
                            (Angstroem and degrees)

        Definition                    Value    dE/dq     Step     New-Value
    ----------------------------------------------------------------------------
     1. B(C   1,C   0)                1.4979 -0.014646  0.0154    1.5133   
     2. B(C   2,C   0)                1.5018 -0.013233  0.0141    1.5159   
     3. B(C   3,C   0)                1.5164 -0.013885  0.0154    1.5318   
     4. B(H   4,C   1)                1.0979 -0.005613  0.0069    1.1048   
     5. B(H   5,C   1)                1.0971 -0.009378  0.0114    1.1085   
     6. B(H   6,C   1)                1.1152  0.006132 -0.0079    1.1073   
     7. B(H   7,C   2)                1.1037 -0.001739  0.0022    1.1058   
     8. B(H   8,C   2)                1.1202  0.005738 -0.0075    1.1127   
     9. B(H   9,C   2)                1.1142  0.003872 -0.0050    1.1092   
    10. B(H  10,C   3)                1.1066 -0.000352  0.0004    1.1070   
    11. B(H  11,C   3)                1.1140  0.004649 -0.0060    1.1081   
    12. B(H  12,C   3)                1.1119  0.003385 -0.0043    1.1076   
    13. A(C   1,C   0,C   3)          109.24 -0.006519    2.87    112.12   
    14. A(C   2,C   0,C   3)          105.73 -0.016621    4.57    110.30   
    15. A(C   1,C   0,C   2)          114.24  0.005410    0.58    114.82   
    16. A(H   4,C   1,H   5)          109.48  0.003384   -0.84    108.65   
    17. A(H   5,C   1,H   6)          107.70  0.003842   -0.28    107.42   
    18. A(H   4,C   1,H   6)          109.37  0.005592   -0.72    108.65   
    19. A(C   0,C   1,H   4)          114.48  0.002621   -0.45    114.03   
    20. A(C   0,C   1,H   5)          108.53 -0.001689    0.19    108.72   
    21. A(C   0,C   1,H   6)          107.04 -0.013945    2.16    109.20   
    22. A(H   7,C   2,H   9)          109.07 -0.000151   -0.44    108.63   
    23. A(C   0,C   2,H   9)          113.54  0.006855   -1.14    112.40   
    24. A(H   7,C   2,H   8)          106.84  0.003207   -0.10    106.74   
    25. A(C   0,C   2,H   8)          105.93 -0.014345    2.31    108.24   
    26. A(H   8,C   2,H   9)          106.94  0.002732   -0.22    106.71   
    27. A(C   0,C   2,H   7)          114.03  0.001218   -0.26    113.76   
    28. A(H  11,C   3,H  12)          105.78  0.000405    0.33    106.12   
    29. A(H  10,C   3,H  12)          113.10  0.010950   -2.12    110.98   
    30. A(C   0,C   3,H  12)          107.98 -0.008349    1.14    109.12   
    31. A(H  10,C   3,H  11)          105.92  0.000293    0.11    106.03   
    32. A(C   0,C   3,H  11)          111.64 -0.000534    0.31    111.95   
    33. A(C   0,C   3,H  10)          112.27 -0.002287    0.20    112.46   
    34. D(H   6,C   1,C   0,C   2)   -164.96  0.013149   -5.02   -169.98   
    35. D(H   4,C   1,C   0,C   2)     73.66  0.014423   -5.38     68.28   
    36. D(H   6,C   1,C   0,C   3)    -46.79 -0.009034    3.15    -43.64   
    37. D(H   5,C   1,C   0,C   2)    -48.97  0.009502   -4.13    -53.09   
    38. D(H   4,C   1,C   0,C   3)   -168.17 -0.007759    2.79   -165.38   
    39. D(H   5,C   1,C   0,C   3)     69.20 -0.012680    4.05     73.25   
    40. D(H   7,C   2,C   0,C   1)    -51.69 -0.010781    3.83    -47.86   
    41. D(H   9,C   2,C   0,C   3)    -46.09  0.012277   -5.03    -51.12   
    42. D(H   9,C   2,C   0,C   1)     74.07 -0.004031    2.01     76.08   
    43. D(H   8,C   2,C   0,C   3)     70.96  0.010220   -4.45     66.51   
    44. D(H   8,C   2,C   0,C   1)   -168.88 -0.006087    2.59   -166.29   
    45. D(H   7,C   2,C   0,C   3)   -171.84  0.005527   -3.22   -175.06   
    46. D(H  11,C   3,C   0,C   1)     28.38  0.000841   -1.26     27.12   
    47. D(H  10,C   3,C   0,C   2)    -89.47 -0.007928    4.31    -85.16   
    48. D(H  10,C   3,C   0,C   1)    147.15 -0.000700   -0.78    146.38   
    49. D(H  12,C   3,C   0,C   2)     35.88 -0.001587    2.57     38.45   
    50. D(H  12,C   3,C   0,C   1)    -87.49  0.005641   -2.52    -90.01   
    51. D(H  11,C   3,C   0,C   2)    151.76 -0.006387    3.82    155.58   
    ----------------------------------------------------------------------------

         *************************************************************
         *                GEOMETRY OPTIMIZATION CYCLE   2            *
         *************************************************************
---------------------------------
CARTESIAN COORDINATES (ANGSTROEM)
---------------------------------
  C      0.018193    0.166161   -0.324519
  C     -1.031024    0.981063    0.400188
  C      1.407994    0.255386    0.274244
  C     -0.398892   -1.300061   -0.475011
  H     -0.894854    2.073561    0.308347
  H     -1.011657    0.710658    1.475069
  H     -2.032454    0.715083    0.009671
  H      1.734773    1.289738    0.489172
  H      2.131277   -0.162874   -0.460576
  H      1.508854   -0.347359    1.199911
  H     -0.032830   -1.749302   -1.418209
  H     -1.500614   -1.417967   -0.487351
  H     -0.038561   -1.871580    0.402603

----------------------------
CARTESIAN COORDINATES (A.U.)
----------------------------
  NO LB      ZA    FRAG     MASS         X           Y           Z
   0 C     6.0000    0    12.011    0.034379    0.313998   -0.613253
   1 C     6.0000    0    12.011   -1.948353    1.853940    0.756246
   2 C     6.0000    0    12.011    2.660723    0.482610    0.518247
   3 C     6.0000    0    12.011   -0.753796   -2.456759   -0.897641
   4 H     1.0000    0     1.008   -1.691028    3.918463    0.582692
   5 H     1.0000    0     1.008   -1.911754    1.342949    2.787477
   6 H     1.0000    0     1.008   -3.840782    1.351311    0.018275
   7 H     1.0000    0     1.008    3.278246    2.437252    0.924401
   8 H     1.0000    0     1.008    4.027530   -0.307786   -0.870363
   9 H     1.0000    0     1.008    2.851321   -0.656413    2.267503
  10 H     1.0000    0     1.008   -0.062039   -3.305701   -2.680027
  11 H     1.0000    0     1.008   -2.835750   -2.679569   -0.920960
  12 H     1.0000    0     1.008   -0.072869   -3.536774    0.760809

--------------------------------
INTERNAL COORDINATES (ANGSTROEM)
--------------------------------
 C      0   0   0     0.000000000000     0.00000000     0.00000000
 C      1   0   0     1.513315066399     0.00000000     0.00000000
 C      1   2   0     1.515924756379   114.50626568     0.00000000
 C      1   2   3     1.531800260671   111.94412322   126.31087398
 H      2   1   3     1.104776338337   114.03138653    68.29902171
 H      2   1   3     1.108540867786   108.71621627   306.92551479
 H      2   1   3     1.107299165758   109.19562193   190.02598584
 H      3   1   2     1.105831024307   113.74970299   312.15197985
 H      3   1   2     1.112672661502   108.23908039   193.71813729
 H      3   1   2     1.109203626869   112.39602660    76.10518766
 H      4   1   2     1.106996339672   112.46474729   146.28908518
 H      4   1   2     1.108082272296   111.94184029    27.03436021
 H      4   1   2     1.107555612272   109.11674419   269.89638560

---------------------------
INTERNAL COORDINATES (A.U.)
---------------------------
 C      0   0   0     0.000000000000     0.00000000     0.00000000
 C      1   0   0     2.859751029831     0.00000000     0.00000000
 C      1   2   0     2.864682629187   114.50626568     0.00000000
 C      1   2   3     2.894682984538   111.94412322   126.31087398
 H      2   1   3     2.087724718694   114.03138653    68.29902171
 H      2   1   3     2.094838648375   108.71621627   306.92551479
 H      2   1   3     2.092492171603   109.19562193   190.02598584
 H      3   1   2     2.089717786334   113.74970299   312.15197985
 H      3   1   2     2.102646606941   108.23908039   193.71813729
 H      3   1   2     2.096091081535   112.39602660    76.10518766
 H      4   1   2     2.091919913234   112.46474729   146.28908518
 H      4   1   2     2.093972028492   111.94184029    27.03436021
 H      4   1   2     2.092976785282   109.11674419   269.89638560


Diagonalization of the overlap matrix:
Smallest eigenvalue                        ... 2.792e-03
Time for diagonalization                   ...    0.001 sec
Threshold for overlap eigenvalues          ... 1.000e-08
Number of eigenvalues below threshold      ... 0
Time for construction of square roots      ...    0.866 sec
Total time needed                          ...    0.868 sec

-------------------
DFT GRID GENERATION
-------------------

General Integration Accuracy     IntAcc      ...  4.340
Radial Grid Type                 RadialGrid  ... Gauss-Chebyshev
Angular Grid (max. acc.)         AngularGrid ... Lebedev-110
Angular grid pruning method      GridPruning ... 3 (G Style)
Weight generation scheme         WeightScheme... Becke
Basis function cutoff            BFCut       ...    1.0000e-12
Integration weight cutoff        WCut        ...    1.0000e-14
Grids for H and He will be reduced by one unit

# of grid points (after initial pruning)     ...  13770 (   0.0 sec)
# of grid points (after weights+screening)   ...  12904 (   0.0 sec)
nearest neighbour list constructed           ...    0.0 sec
Grid point re-assignment to atoms done       ...    0.0 sec
Grid point division into batches done        ...    0.0 sec
Reduced shell lists constructed in    0.1 sec

Total number of grid points                  ...    12904
Total number of batches                      ...      209
Average number of points per batch           ...       61
Average number of grid points per atom       ...      993
Average number of shells per batch           ...    37.34 (88.90%)
Average number of basis functions per batch  ...    66.62 (90.03%)
Average number of large shells per batch     ...    32.37 (86.70%)
Average number of large basis fcns per batch ...    57.12 (85.74%)
Maximum spatial batch extension              ...  20.38, 22.66, 22.44 au
Average spatial batch extension              ...   4.17,  4.06,  3.98 au

Time for grid setup =    0.328 sec

--------------
SCF ITERATIONS
--------------
ITER       Energy         Delta-E        Max-DP      RMS-DP      [F,P]     Damp
               ***  Starting incremental Fock matrix formation  ***
  0   -157.5268134035   0.000000000000 0.00211818  0.00016474  0.0171653 0.7000
  1   -157.5276988687  -0.000885465163 0.00175672  0.00015177  0.0135750 0.7000
                               ***Turning on DIIS***
  2   -157.5283915295  -0.000692660780 0.00448714  0.00039907  0.0101841 0.0000
  3   -157.5301477022  -0.001756172684 0.00272448  0.00008410  0.0013219 0.0000
  4   -157.5301727095  -0.000025007301 0.00180575  0.00006479  0.0006197 0.0000
  5   -157.5301775146  -0.000004805120 0.00032585  0.00001360  0.0002951 0.0000
  6   -157.5301780171  -0.000000502460 0.00024262  0.00000655  0.0001188 0.0000
  7   -157.5301781056  -0.000000088493 0.00003588  0.00000138  0.0000172 0.0000
  8   -157.5301781112  -0.000000005675 0.00001005  0.00000045  0.0000080 0.0000
  9   -157.5301781118  -0.000000000613 0.00000505  0.00000018  0.0000051 0.0000
 10   -157.5301781120  -0.000000000121 0.00000095  0.00000006  0.0000008 0.0000
                 **** Energy Check signals convergence ****

 Fermi smearing  (ALPHA): E(HOMO(Eh)) = -0.331105 MUE = -0.070793 gap=   6.949 eV
 Fermi smearing   (BETA): E(HOMO(Eh)) = -0.325468 MUE = -0.185042 gap=   7.544 eV

N_FOD(alpha) =  0.000000
 N_FOD(beta) =  0.000000
       N_FOD =  0.000000

               *****************************************************
               *                     SUCCESS                       *
               *           SCF CONVERGED AFTER  11 CYCLES          *
               *****************************************************

Setting up the final grid:

General Integration Accuracy     IntAcc      ...  4.670
Radial Grid Type                 RadialGrid  ... Gauss-Chebyshev
Angular Grid (max. acc.)         AngularGrid ... Lebedev-302
Angular grid pruning method      GridPruning ... 3 (G Style)
Weight generation scheme         WeightScheme... Becke
Basis function cutoff            BFCut       ...    1.0000e-12
Integration weight cutoff        WCut        ...    1.0000e-14
Grids for H and He will be reduced by one unit

# of grid points (after initial pruning)     ...  55394 (   0.0 sec)
# of grid points (after weights+screening)   ...  51281 (   0.1 sec)
nearest neighbour list constructed           ...    0.0 sec
Grid point re-assignment to atoms done       ...    0.0 sec
Grid point division into batches done        ...    0.2 sec
Reduced shell lists constructed in    0.3 sec

Total number of grid points                  ...    51281
Total number of batches                      ...      808
Average number of points per batch           ...       63
Average number of grid points per atom       ...     3945
Average number of shells per batch           ...    34.77 (82.79%)
Average number of basis functions per batch  ...    61.76 (83.46%)
Average number of large shells per batch     ...    29.59 (85.09%)
Average number of large basis fcns per batch ...    51.93 (84.08%)
Maximum spatial batch extension              ...  19.59, 19.22, 19.94 au
Average spatial batch extension              ...   2.62,  2.66,  2.59 au

Final grid set up in    0.8 sec
Final integration                            ... done (   2.7 sec)
Change in XC energy                          ...     0.000244983
Integrated number of electrons               ...    32.999923797
Previous integrated no of electrons          ...    33.002316462
Total Energy       :         -157.52993313 Eh           -4286.60741 eV
  Last Energy change         ...   -1.9440e-11  Tolerance :   1.0000e-09
  Last MAX-Density change    ...    4.2433e-07  Tolerance :   1.0000e-08
             **** THE GBW FILE WAS UPDATED (orca7.gbw) ****
             **** DENSITY FILE WAS UPDATED (orca7.scfp) ****
             **** ENERGY FILE WAS UPDATED (orca7.en.tmp) ****
             **** THE GBW FILE WAS UPDATED (orca7.gbw) ****
             **** DENSITY FILE WAS UPDATED (orca7.scfp) ****
Total SCF time: 0 days 0 hours 1 min 17 sec 


-------------------------------------------------------------------------------
                          DFT DISPERSION CORRECTION                            
                                                                               
                              DFTD3 V3.1  Rev 1                                
                          USING Becke-Johnson damping                          
-------------------------------------------------------------------------------
-------------------------   ----------------
Dispersion correction           -0.014221957
-------------------------   ----------------


-------------------------   --------------------
FINAL SINGLE POINT ENERGY      -157.544155085986
-------------------------   --------------------

------------------------------------------------------------------------------
                         ORCA SCF GRADIENT CALCULATION
------------------------------------------------------------------------------

Gradient of the Kohn-Sham DFT energy:
Kohn-Sham wavefunction type      ... UKS
Hartree-Fock exchange scaling    ...    0.200
Number of operators              ...    2
Number of atoms                  ...   13
Basis set dimensions             ...   74
Integral neglect threshold       ... 1.0e-12
Integral primitive cutoff        ... 1.0e-14

Nuclear repulsion gradient       ... done
One Electron Gradient            ... done
Pre-screening matrix             ... done
Starting the two electron gradient:
Two electron gradient done
Exchange-correlation gradient    ... done
Dispersion correction            ... done

------------------
CARTESIAN GRADIENT
------------------

   1   C   :    0.004515380    0.020587683   -0.037685529
   2   C   :    0.002009144    0.000919811    0.015580769
   3   C   :   -0.007726886   -0.007791837    0.024179750
   4   C   :    0.008102827   -0.011728979    0.011708321
   5   H   :   -0.001791345   -0.001018723   -0.001564249
   6   H   :    0.000791116   -0.001484006   -0.003348477
   7   H   :    0.000430935   -0.004499954   -0.002307861
   8   H   :    0.001808439   -0.000146993   -0.000973230
   9   H   :   -0.001723051   -0.000129892   -0.004889216
  10   H   :    0.003016047   -0.000537434   -0.001420483
  11   H   :   -0.004985288    0.003266425   -0.003516440
  12   H   :   -0.001303746   -0.001592198    0.001544767
  13   H   :   -0.003143573    0.004156097    0.002691879

Difference to translation invariance:
           :   -0.0000000000    0.0000000000    0.0000000000

Norm of the cartesian gradient     ...    0.0577530048
RMS gradient                       ...    0.0092478820
MAX gradient                       ...    0.0376855295

-------
TIMINGS
-------

Total SCF gradient time            ...        4.597 sec

One electron gradient       ....       0.027 sec  (  0.6%)
Prescreening matrices       ....       0.026 sec  (  0.6%)
Two electron gradient       ....       1.406 sec  ( 30.6%)
XC gradient                 ....       2.727 sec  ( 59.3%)
------------------------------------------------------------------------------
                         ORCA GEOMETRY RELAXATION STEP
------------------------------------------------------------------------------

Reading the OPT-File                    .... done
Getting information on internals        .... done
Copying old internal coords+grads       .... done
Making the new internal coordinates     .... (new redundants).... done
Validating the new internal coordinates .... (new redundants).... done
Calculating the B-matrix                .... done
Calculating the G,G- and P matrices     .... done
Transforming gradient to internals      .... done
Projecting the internal gradient        .... done
Number of atoms                         ....  13
Number of internal coordinates          ....  51
Current Energy                          ....  -157.544155086 Eh
Current gradient norm                   ....     0.057753005 Eh/bohr
Maximum allowed component of the step   ....  0.300
Current trust radius                    ....  0.300
Updating the Hessian (BFGS)             .... done
Forming the augmented Hessian           .... done
Diagonalizing the augmented Hessian     .... done
Last element of RFO vector              ....  0.931082613
Lowest eigenvalues of augmented Hessian:
 -0.010053674  0.011657672  0.012771246  0.013249811  0.060203039
Length of the computed step             ....  0.391810987
Warning: the length of the step is outside the trust region - taking restricted step instead
The input lambda is                     ....    -0.010054
   iter:   1  x=   -0.021597  g=    5.502190 f(x)=     0.063516
   iter:   2  x=   -0.027360  g=    2.961154 f(x)=     0.017065
   iter:   3  x=   -0.028214  g=    2.314539 f(x)=     0.001975
   iter:   4  x=   -0.028229  g=    2.236642 f(x)=     0.000034
   iter:   5  x=   -0.028229  g=    2.235308 f(x)=     0.000000
   iter:   6  x=   -0.028229  g=    2.235308 f(x)=     0.000000
The output lambda is                    ....    -0.028229 (6 iterations)
The final length of the internal step   ....  0.300000000
Converting the step to cartesian space:
 Initial RMS(Int)=    0.0420084025
Transforming coordinates:
 Iter   0:  RMS(Cart)=    0.0594426669 RMS(Int)=    0.0427895327
 Iter   1:  RMS(Cart)=    0.0036166824 RMS(Int)=    0.0020942919
 Iter   2:  RMS(Cart)=    0.0001493088 RMS(Int)=    0.0000880102
 Iter   3:  RMS(Cart)=    0.0000086361 RMS(Int)=    0.0000067462
 Iter   4:  RMS(Cart)=    0.0000005073 RMS(Int)=    0.0000002898
 Iter   5:  RMS(Cart)=    0.0000000342 RMS(Int)=    0.0000000273
done
Storing new coordinates                 .... done

                                .--------------------.
          ----------------------|Geometry convergence|-------------------------
          Item                value                   Tolerance       Converged
          ---------------------------------------------------------------------
          Energy change      -0.0110189309            0.0000050000      NO
          RMS gradient        0.0040403919            0.0001000000      NO
          MAX gradient        0.0084974695            0.0003000000      NO
          RMS step            0.0420084025            0.0020000000      NO
          MAX step            0.0951056531            0.0040000000      NO
          ........................................................
          Max(Bonds)      0.0105      Max(Angles)    3.50
          Max(Dihed)        5.45      Max(Improp)    0.00
          ---------------------------------------------------------------------

The optimization has not yet converged - more geometry cycles are needed


    ---------------------------------------------------------------------------
                         Redundant Internal Coordinates
                            (Angstroem and degrees)

        Definition                    Value    dE/dq     Step     New-Value
    ----------------------------------------------------------------------------
     1. B(C   1,C   0)                1.5133 -0.000276  0.0001    1.5135   
     2. B(C   2,C   0)                1.5159  0.001942 -0.0043    1.5117   
     3. B(C   3,C   0)                1.5318  0.004778 -0.0105    1.5213   
     4. B(H   4,C   1)                1.1048 -0.001095  0.0022    1.1070   
     5. B(H   5,C   1)                1.1085 -0.002876  0.0061    1.1147   
     6. B(H   6,C   1)                1.1073  0.001505 -0.0033    1.1040   
     7. B(H   7,C   2)                1.1058  0.000205 -0.0006    1.1052   
     8. B(H   8,C   2)                1.1127  0.002152 -0.0050    1.1077   
     9. B(H   9,C   2)                1.1092 -0.000607  0.0018    1.1110   
    10. B(H  10,C   3)                1.1070  0.000026 -0.0001    1.1069   
    11. B(H  11,C   3)                1.1081  0.001448 -0.0032    1.1049   
    12. B(H  12,C   3)                1.1076 -0.001041  0.0028    1.1104   
    13. A(C   1,C   0,C   3)          111.94 -0.004914    3.18    115.12   
    14. A(C   2,C   0,C   3)          110.17 -0.006302    3.50    113.66   
    15. A(C   1,C   0,C   2)          114.51  0.002397    0.79    115.30   
    16. A(H   4,C   1,H   5)          108.64  0.002192   -1.01    107.63   
    17. A(H   5,C   1,H   6)          107.41  0.002150   -0.15    107.26   
    18. A(H   4,C   1,H   6)          108.64  0.002133   -0.46    108.18   
    19. A(C   0,C   1,H   4)          114.03  0.003161   -0.96    113.07   
    20. A(C   0,C   1,H   5)          108.72 -0.002226    0.55    109.26   
    21. A(C   0,C   1,H   6)          109.20 -0.007365    2.11    111.31   
    22. A(H   7,C   2,H   9)          108.62 -0.000995   -0.34    108.27   
    23. A(C   0,C   2,H   9)          112.40  0.005270   -1.64    110.76   
    24. A(H   7,C   2,H   8)          106.73  0.000556    0.45    107.18   
    25. A(C   0,C   2,H   8)          108.24 -0.008497    2.56    110.80   
    26. A(H   8,C   2,H   9)          106.72  0.000892   -0.02    106.71   
    27. A(C   0,C   2,H   7)          113.75  0.002403   -0.76    112.99   
    28. A(H  11,C   3,H  12)          106.10 -0.001359    0.92    107.03   
    29. A(H  10,C   3,H  12)          110.99  0.006442   -2.52    108.47   
    30. A(C   0,C   3,H  12)          109.12 -0.003788    0.82    109.94   
    31. A(H  10,C   3,H  11)          106.03 -0.001588    0.79    106.82   
    32. A(C   0,C   3,H  11)          111.94  0.001145    0.03    111.97   
    33. A(C   0,C   3,H  10)          112.46 -0.000648   -0.04    112.43   
    34. D(H   6,C   1,C   0,C   2)   -169.97  0.007104   -5.12   -175.10   
    35. D(H   4,C   1,C   0,C   2)     68.30  0.007630   -5.45     62.85   
    36. D(H   6,C   1,C   0,C   3)    -43.66 -0.003827    2.39    -41.27   
    37. D(H   5,C   1,C   0,C   2)    -53.07  0.004326   -3.89    -56.97   
    38. D(H   4,C   1,C   0,C   3)   -165.39 -0.003301    2.06   -163.33   
    39. D(H   5,C   1,C   0,C   3)     73.24 -0.006605    3.62     76.86   
    40. D(H   7,C   2,C   0,C   1)    -47.85 -0.007163    4.33    -43.52   
    41. D(H   9,C   2,C   0,C   3)    -51.12  0.007789   -5.39    -56.51   
    42. D(H   9,C   2,C   0,C   1)     76.11 -0.002343    1.82     77.93   
    43. D(H   8,C   2,C   0,C   3)     66.49  0.006567   -4.69     61.80   
    44. D(H   8,C   2,C   0,C   1)   -166.28 -0.003565    2.52   -163.76   
    45. D(H   7,C   2,C   0,C   3)   -175.07  0.002969   -2.88   -177.96   
    46. D(H  11,C   3,C   0,C   1)     27.03  0.001191   -1.16     25.88   
    47. D(H  10,C   3,C   0,C   2)    -85.07 -0.006285    5.28    -79.80   
    48. D(H  10,C   3,C   0,C   1)    146.29 -0.000498   -0.15    146.14   
    49. D(H  12,C   3,C   0,C   2)     38.53 -0.001216    2.63     41.16   
    50. D(H  12,C   3,C   0,C   1)    -90.10  0.004571   -2.81    -92.91   
    51. D(H  11,C   3,C   0,C   2)    155.67 -0.004595    4.27    159.94   
    ----------------------------------------------------------------------------

         *************************************************************
         *                GEOMETRY OPTIMIZATION CYCLE   3            *
         *************************************************************
---------------------------------
CARTESIAN COORDINATES (ANGSTROEM)
---------------------------------
  C      0.005289    0.118300   -0.273812
  C     -1.029088    0.981572    0.415682
  C      1.409930    0.264364    0.265431
  C     -0.411434   -1.329408   -0.485265
  H     -0.837514    2.065512    0.298199
  H     -1.027868    0.755089    1.507099
  H     -2.044732    0.768215    0.039048
  H      1.693166    1.316618    0.450007
  H      2.149740   -0.153469   -0.445301
  H      1.526556   -0.298193    1.216343
  H     -0.005092   -1.753068   -1.423692
  H     -1.509632   -1.440455   -0.533712
  H     -0.059115   -1.952567    0.363512

----------------------------
CARTESIAN COORDINATES (A.U.)
----------------------------
  NO LB      ZA    FRAG     MASS         X           Y           Z
[...]

             **** THE GBW FILE WAS UPDATED (orca7.gbw) ****
             **** DENSITY FILE WAS UPDATED (orca7.scfp) ****
             **** ENERGY FILE WAS UPDATED (orca7.en.tmp) ****
             **** THE GBW FILE WAS UPDATED (orca7.gbw) ****
             **** DENSITY FILE WAS UPDATED (orca7.scfp) ****
----------------
ORBITAL ENERGIES
----------------
                 SPIN UP ORBITALS
  NO   OCC          E(Eh)            E(eV) 
   0   1.0000     -10.183269      -277.1008 
   1   1.0000     -10.169499      -276.7261 
   2   1.0000     -10.169294      -276.7206 
   3   1.0000     -10.168950      -276.7112 
   4   1.0000      -0.789259       -21.4768 
   5   1.0000      -0.677203       -18.4276 
   6   1.0000      -0.677131       -18.4257 
   7   1.0000      -0.526111       -14.3162 
   8   1.0000      -0.439710       -11.9651 
   9   1.0000      -0.435288       -11.8448 
  10   1.0000      -0.435279       -11.8446 
  11   1.0000      -0.381298       -10.3757 
  12   1.0000      -0.381162       -10.3719 
  13   1.0000      -0.362940        -9.8761 
  14   1.0000      -0.342210        -9.3120 
  15   1.0000      -0.342116        -9.3095 
  16   1.0000      -0.170538        -4.6406 
  17   0.0000       0.054755         1.4900 
  18   0.0000       0.105097         2.8598 
  19   0.0000       0.105583         2.8731 
  20   0.0000       0.121041         3.2937 
  21   0.0000       0.121275         3.3000 
  22   0.0000       0.132822         3.6143 
  23   0.0000       0.156484         4.2582 
  24   0.0000       0.156707         4.2642 
  25   0.0000       0.191387         5.2079 
  26   0.0000       0.206165         5.6100 
  27   0.0000       0.277829         7.5601 
  28   0.0000       0.279628         7.6091 
  29   0.0000       0.401635        10.9290 
  30   0.0000       0.402595        10.9552 
  31   0.0000       0.438625        11.9356 
  32   0.0000       0.472737        12.8638 
  33   0.0000       0.472871        12.8675 
  34   0.0000       0.475978        12.9520 
  35   0.0000       0.613376        16.6908 
  36   0.0000       0.622102        16.9283 
  37   0.0000       0.622270        16.9328 
  38   0.0000       0.638961        17.3870 
  39   0.0000       0.647783        17.6271 
  40   0.0000       0.663635        18.0584 
  41   0.0000       0.682212        18.5639 
  42   0.0000       0.682375        18.5684 
  43   0.0000       0.704828        19.1793 
  44   0.0000       0.705265        19.1912 
  45   0.0000       0.705565        19.1994 
  46   0.0000       0.731084        19.8938 
  47   0.0000       0.732720        19.9383 
  48   0.0000       0.763723        20.7820 
  49   0.0000       0.787490        21.4287 
  50   0.0000       0.788323        21.4514 
  51   0.0000       0.842301        22.9202 
  52   0.0000       1.014063        27.5941 
  53   0.0000       1.014928        27.6176 
  54   0.0000       1.430056        38.9138 
  55   0.0000       1.430239        38.9188 
  56   0.0000       1.724216        46.9183 
  57   0.0000       1.773007        48.2460 
  58   0.0000       1.773024        48.2464 
  59   0.0000       1.777211        48.3604 
  60   0.0000       1.979662        53.8693 
  61   0.0000       1.979995        53.8784 
  62   0.0000       1.980537        53.8932 
  63   0.0000       2.041589        55.5545 
  64   0.0000       2.042385        55.5761 
  65   0.0000       2.132821        58.0370 
  66   0.0000       2.155671        58.6588 
  67   0.0000       2.176195        59.2173 
  68   0.0000       2.176486        59.2252 
  69   0.0000       2.416744        65.7629 
  70   0.0000       2.417139        65.7737 
  71   0.0000       2.482950        67.5645 
  72   0.0000       2.732830        74.3641 
  73   0.0000       2.733116        74.3719 

                 SPIN DOWN ORBITALS
  NO   OCC          E(Eh)            E(eV) 
   0   1.0000     -10.170492      -276.7532 
   1   1.0000     -10.170290      -276.7477 
   2   1.0000     -10.169951      -276.7384 
   3   1.0000     -10.168976      -276.7119 
   4   1.0000      -0.772283       -21.0149 
   5   1.0000      -0.674838       -18.3633 
   6   1.0000      -0.674764       -18.3613 
   7   1.0000      -0.508089       -13.8258 
   8   1.0000      -0.431274       -11.7356 
   9   1.0000      -0.431259       -11.7351 
  10   1.0000      -0.419835       -11.4243 
  11   1.0000      -0.375321       -10.2130 
  12   1.0000      -0.375169       -10.2089 
  13   1.0000      -0.361829        -9.8459 
  14   1.0000      -0.337387        -9.1808 
  15   1.0000      -0.337293        -9.1782 
  16   0.0000      -0.030272        -0.8238 
  17   0.0000       0.055963         1.5228 
  18   0.0000       0.106168         2.8890 
  19   0.0000       0.106609         2.9010 
  20   0.0000       0.122557         3.3349 
  21   0.0000       0.122730         3.3397 
  22   0.0000       0.141518         3.8509 
  23   0.0000       0.159548         4.3415 
  24   0.0000       0.159762         4.3473 
  25   0.0000       0.191522         5.2116 
  26   0.0000       0.224258         6.1024 
  27   0.0000       0.284013         7.7284 
  28   0.0000       0.285857         7.7786 
  29   0.0000       0.403605        10.9827 
  30   0.0000       0.404561        11.0087 
  31   0.0000       0.460272        12.5246 
  32   0.0000       0.479501        13.0479 
  33   0.0000       0.479670        13.0525 
  34   0.0000       0.492889        13.4122 
  35   0.0000       0.623515        16.9667 
  36   0.0000       0.623674        16.9710 
  37   0.0000       0.649161        17.6646 
  38   0.0000       0.649512        17.6741 
  39   0.0000       0.657325        17.8867 
  40   0.0000       0.673192        18.3185 
  41   0.0000       0.687076        18.6963 
  42   0.0000       0.687263        18.7014 
  43   0.0000       0.707096        19.2411 
  44   0.0000       0.707638        19.2558 
  45   0.0000       0.714958        19.4550 
  46   0.0000       0.734461        19.9857 
  47   0.0000       0.736063        20.0293 
  48   0.0000       0.763448        20.7745 
  49   0.0000       0.791672        21.5425 
  50   0.0000       0.792537        21.5660 
  51   0.0000       0.851640        23.1743 
  52   0.0000       1.017090        27.6764 
  53   0.0000       1.018001        27.7012 
  54   0.0000       1.452294        39.5189 
  55   0.0000       1.452458        39.5234 
  56   0.0000       1.721859        46.8542 
  57   0.0000       1.776502        48.3411 
  58   0.0000       1.776550        48.3424 
  59   0.0000       1.806247        49.1505 
  60   0.0000       1.983927        53.9854 
  61   0.0000       1.984206        53.9930 
  62   0.0000       2.004418        54.5430 
  63   0.0000       2.050529        55.7977 
  64   0.0000       2.051288        55.8184 
  65   0.0000       2.134997        58.0962 
  66   0.0000       2.154810        58.6354 
  67   0.0000       2.180000        59.3208 
  68   0.0000       2.180304        59.3291 
  69   0.0000       2.439191        66.3738 
  70   0.0000       2.439605        66.3850 
  71   0.0000       2.511161        68.3322 
  72   0.0000       2.740392        74.5699 
  73   0.0000       2.740638        74.5766 

                    ********************************
                    * MULLIKEN POPULATION ANALYSIS *
                    ********************************

------------------------------------------
FOD BASED MULLIKEN REDUCED ORBITAL CHARGES
------------------------------------------
  0 C s       :     0.000000  s :     0.000000
      pz      :     0.000000  p :     0.000000
      px      :     0.000000
      py      :     0.000000
      dz2     :     0.000000  d :     0.000000
      dxz     :     0.000000
      dyz     :     0.000000
      dx2y2   :     0.000000
      dxy     :     0.000000
  1 C s       :    -0.000000  s :    -0.000000
      pz      :     0.000000  p :     0.000000
      px      :     0.000000
      py      :     0.000000
      dz2     :     0.000000  d :     0.000000
      dxz     :     0.000000
      dyz     :     0.000000
      dx2y2   :     0.000000
      dxy     :     0.000000
  2 C s       :    -0.000000  s :    -0.000000
      pz      :     0.000000  p :     0.000000
      px      :     0.000000
      py      :     0.000000
      dz2     :     0.000000  d :     0.000000
      dxz     :     0.000000
      dyz     :     0.000000
      dx2y2   :     0.000000
      dxy     :     0.000000
  3 C s       :    -0.000000  s :    -0.000000
      pz      :     0.000000  p :     0.000000
      px      :     0.000000
      py      :     0.000000
      dz2     :     0.000000  d :     0.000000
      dxz     :     0.000000
      dyz     :     0.000000
      dx2y2   :     0.000000
      dxy     :     0.000000
  4 H s       :     0.000000  s :     0.000000
  5 H s       :     0.000000  s :     0.000000
  6 H s       :     0.000000  s :     0.000000
  7 H s       :     0.000000  s :     0.000000
  8 H s       :     0.000000  s :     0.000000
  9 H s       :     0.000000  s :     0.000000
 10 H s       :     0.000000  s :     0.000000
 11 H s       :     0.000000  s :     0.000000
 12 H s       :     0.000000  s :     0.000000


                     *******************************
                     * LOEWDIN POPULATION ANALYSIS *
                     *******************************

-------------------------------------------
LOEWDIN ATOMIC CHARGES AND SPIN POPULATIONS
-------------------------------------------
   0 C :   -0.080156    0.820392
   1 C :   -0.313345   -0.023173
   2 C :   -0.312324   -0.023244
   3 C :   -0.314639   -0.023141
   4 H :    0.113771    0.012082
   5 H :    0.112676    0.058668
   6 H :    0.113722    0.012268
   7 H :    0.113510    0.012080
   8 H :    0.113778    0.012273
   9 H :    0.111898    0.059058
  10 H :    0.114022    0.011973
  11 H :    0.113869    0.012366
  12 H :    0.113218    0.058398

----------------------------------------------------
LOEWDIN REDUCED ORBITAL CHARGES AND SPIN POPULATIONS
----------------------------------------------------
CHARGE
  0 C s       :     2.904496  s :     2.904496
      pz      :     0.998176  p :     3.083211
      px      :     1.047341
      py      :     1.037695
      dz2     :     0.008656  d :     0.092449
      dxz     :     0.015071
      dyz     :     0.010579
      dx2y2   :     0.031337
      dxy     :     0.026806
  1 C s       :     2.947135  s :     2.947135
      pz      :     1.101143  p :     3.288262
      px      :     1.092023
      py      :     1.095097
      dz2     :     0.023068  d :     0.077947
      dxz     :     0.015733
      dyz     :     0.005723
      dx2y2   :     0.021147
      dxy     :     0.012277
  2 C s       :     2.946911  s :     2.946911
      pz      :     1.105466  p :     3.287375
      px      :     1.075011
      py      :     1.106897
      dz2     :     0.016076  d :     0.078039
      dxz     :     0.020885
      dyz     :     0.007800
      dx2y2   :     0.020331
      dxy     :     0.012946
  3 C s       :     2.947144  s :     2.947144
      pz      :     1.104517  p :     3.289647
      px      :     1.106139
      py      :     1.078991
      dz2     :     0.006662  d :     0.077849
      dxz     :     0.015962
      dyz     :     0.024788
      dx2y2   :     0.020183
      dxy     :     0.010255
  4 H s       :     0.886229  s :     0.886229
  5 H s       :     0.887324  s :     0.887324
  6 H s       :     0.886278  s :     0.886278
  7 H s       :     0.886490  s :     0.886490
  8 H s       :     0.886222  s :     0.886222
  9 H s       :     0.888102  s :     0.888102
 10 H s       :     0.885978  s :     0.885978
 11 H s       :     0.886131  s :     0.886131
 12 H s       :     0.886782  s :     0.886782

SPIN
  0 C s       :     0.041826  s :     0.041826
      pz      :     0.633672  p :     0.781654
      px      :     0.016991
      py      :     0.130991
      dz2     :    -0.000790  d :    -0.003087
      dxz     :    -0.000417
      dyz     :    -0.000550
      dx2y2   :    -0.000870
      dxy     :    -0.000460
  1 C s       :    -0.005733  s :    -0.005733
      pz      :    -0.014642  p :    -0.034292
      px      :    -0.009742
      py      :    -0.009908
      dz2     :     0.009338  d :     0.016852
      dxz     :     0.005231
      dyz     :     0.000562
      dx2y2   :     0.000668
      dxy     :     0.001054
  2 C s       :    -0.005742  s :    -0.005742
      pz      :    -0.012846  p :    -0.034387
      px      :    -0.015913
      py      :    -0.005628
      dz2     :     0.003164  d :     0.016885
      dxz     :     0.010617
      dyz     :     0.000497
      dx2y2   :     0.000845
      dxy     :     0.001762
  3 C s       :    -0.005740  s :    -0.005740
      pz      :    -0.012983  p :    -0.034231
      px      :    -0.004654
      py      :    -0.016594
      dz2     :     0.000699  d :     0.016830
      dxz     :     0.000829
      dyz     :     0.011292
      dx2y2   :     0.003504
      dxy     :     0.000506
  4 H s       :     0.012082  s :     0.012082
  5 H s       :     0.058668  s :     0.058668
  6 H s       :     0.012268  s :     0.012268
  7 H s       :     0.012080  s :     0.012080
  8 H s       :     0.012273  s :     0.012273
  9 H s       :     0.059058  s :     0.059058
 10 H s       :     0.011973  s :     0.011973
 11 H s       :     0.012366  s :     0.012366
 12 H s       :     0.058398  s :     0.058398


                      *****************************
                      * MAYER POPULATION ANALYSIS *
                      *****************************

  NA   - Mulliken gross atomic population
  ZA   - Total nuclear charge
  QA   - Mulliken gross atomic charge
  VA   - Mayer's total valence
  BVA  - Mayer's bonded valence
  FA   - Mayer's free valence

  ATOM       NA         ZA         QA         VA         BVA        FA
  0 C      6.1557     6.0000    -0.1557     4.2148     3.5241     0.6907
  1 C      6.2224     6.0000    -0.2224     3.9372     3.9337     0.0035
  2 C      6.2181     6.0000    -0.2181     3.9384     3.9349     0.0035
  3 C      6.2276     6.0000    -0.2276     3.9381     3.9346     0.0035
  4 H      0.9076     1.0000     0.0924     0.9586     0.9584     0.0002
  5 H      0.9083     1.0000     0.0917     0.9487     0.9437     0.0050
  6 H      0.9089     1.0000     0.0911     0.9586     0.9584     0.0002
  7 H      0.9090     1.0000     0.0910     0.9595     0.9593     0.0002
  8 H      0.9085     1.0000     0.0915     0.9590     0.9589     0.0002
  9 H      0.9114     1.0000     0.0886     0.9491     0.9440     0.0051
 10 H      0.9068     1.0000     0.0932     0.9588     0.9586     0.0002
 11 H      0.9090     1.0000     0.0910     0.9589     0.9587     0.0002
 12 H      0.9066     1.0000     0.0934     0.9488     0.9439     0.0050

  Mayer bond orders larger than 0.100000
B(  0-C ,  1-C ) :   1.1233 B(  0-C ,  2-C ) :   1.1230 B(  0-C ,  3-C ) :   1.1248 
B(  1-C ,  4-H ) :   0.9508 B(  1-C ,  5-H ) :   0.9289 B(  1-C ,  6-H ) :   0.9501 
B(  2-C ,  7-H ) :   0.9508 B(  2-C ,  8-H ) :   0.9505 B(  2-C ,  9-H ) :   0.9295 
B(  3-C , 10-H ) :   0.9506 B(  3-C , 11-H ) :   0.9495 B(  3-C , 12-H ) :   0.9287 


-------
TIMINGS
-------

Total SCF time: 0 days 0 hours 4 min 23 sec 

Total time                  ....     263.996 sec
Sum of individual times     ....     209.813 sec  ( 79.5%)

Fock matrix formation       ....     172.108 sec  ( 65.2%)
  XC integration            ....      87.299 sec  ( 50.7% of F)
    Basis function eval.    ....       0.518 sec  (  0.6% of XC)
    Density eval.           ....       0.336 sec  (  0.4% of XC)
    XC-Functional eval.     ....       0.225 sec  (  0.3% of XC)
    XC-Potential eval.      ....       0.444 sec  (  0.5% of XC)
Diagonalization             ....       2.623 sec  (  1.0%)
Density matrix formation    ....      17.852 sec  (  6.8%)
Population analysis         ....       4.917 sec  (  1.9%)
Initial guess               ....       0.004 sec  (  0.0%)
Orbital Transformation      ....       0.000 sec  (  0.0%)
Orbital Orthonormalization  ....       0.002 sec  (  0.0%)
DIIS solution               ....       8.169 sec  (  3.1%)
Grid generation             ....       4.140 sec  (  1.6%)


-------------------------------------------------------------------------------
                          DFT DISPERSION CORRECTION                            
                                                                               
                              DFTD3 V3.1  Rev 1                                
                          USING Becke-Johnson damping                          
-------------------------------------------------------------------------------
The B3LYP functional is recognized
Active option DFTDOPT                   ...         4   

molecular C6(AA) [au] = 1133.314105 


            DFT-D V3
 parameters
 s6 scaling factor         :     1.0000 
 a1 scaling factor         :     0.3981 
 s8 scaling factor         :     1.9889 
 a2 scaling factor         :     4.4211 
 ad hoc parameters k1-k3   :    16.0000     1.3333    -4.0000 

 Edisp/kcal,au: -8.704666276912  -0.013871767213 
 E6   /kcal   :  -4.310506685 
 E8   /kcal   :  -4.394159592 
 % E8         :  50.480506111 

-------------------------   ----------------
Dispersion correction           -0.013871767
-------------------------   ----------------


-------------------------   --------------------
FINAL SINGLE POINT ENERGY      -157.556987013360
-------------------------   --------------------

                                *** OPTIMIZATION RUN DONE ***

                            ***************************************
                            *     ORCA property calculations      *
                            ***************************************

                                    ---------------------
                                    Active property flags
                                    ---------------------
   (+) Dipole Moment


------------------------------------------------------------------------------
                       ORCA ELECTRIC PROPERTIES CALCULATION
------------------------------------------------------------------------------

Dipole Moment Calculation                       ... on
Quadrupole Moment Calculation                   ... off
Polarizability Calculation                      ... off
GBWName                                         ... orca7.gbw
Electron density file                           ... orca7.scfp
The origin for moment calculation is the CENTER OF MASS  = (-0.022931, -0.056409  0.111551)

-------------
DIPOLE MOMENT
-------------
                                X             Y             Z
Electronic contribution:     -0.01631       0.24060      -0.55821
Nuclear contribution   :      0.01839      -0.27594       0.64125
                        -----------------------------------------
Total Dipole Moment    :      0.00208      -0.03534       0.08304
                        -----------------------------------------
Magnitude (a.u.)       :      0.09027
Magnitude (Debye)      :      0.22946



--------------------
Rotational spectrum 
--------------------
 
Rotational constants in cm-1:     0.264871     0.264784     0.143766 
Rotational constants in MHz :  7940.635797  7938.016664  4309.988415 

 Dipole components along the rotational axes: 
x,y,z [a.u.] :     0.000467    -0.000108     0.090274 
x,y,z [Debye]:     0.001188    -0.000274     0.229457 

 

Timings for individual modules:

Sum of individual times         ...     4228.153 sec (=  70.469 min)
GTO integral calculation        ...       91.341 sec (=   1.522 min)   2.2 %
SCF iterations                  ...     4011.690 sec (=  66.862 min)  94.9 %
SCF Gradient evaluation         ...       77.099 sec (=   1.285 min)   1.8 %
Geometry relaxation             ...       48.022 sec (=   0.800 min)   1.1 %
                             ****ORCA TERMINATED NORMALLY****
TOTAL RUN TIME: 0 days 1 hours 13 minutes 29 seconds 665 msec
