
                                 *****************
                                 * O   R   C   A *
                                 *****************

           --- An Ab Initio, DFT and Semiempirical electronic structure package ---

                  #######################################################
                  #                        -***-                        #
                  #          Department of theory and spectroscopy      #
                  #               Directorship: Frank Neese             #
                  #        Max Planck Institute fuer Kohlenforschung    #
                  #                Kaiser Wilhelm Platz 1               #
                  #                 D-45470 Muelheim/Ruhr               #
                  #                      Germany                        #
                  #                                                     #
                  #                  All rights reserved                #
                  #                        -***-                        #
                  #######################################################


                         Program Version 4.2.1 -  RELEASE  -


 With contributions from (in alphabetic order):
   Daniel Aravena         : Magnetic Suceptibility
   Michael Atanasov       : Ab Initio Ligand Field Theory (pilot matlab implementation)
   Alexander A. Auer      : GIAO ZORA, VPT2
   Ute Becker             : Parallelization
   Giovanni Bistoni       : ED, misc. LED, open-shell LED, HFLD
   Martin Brehm           : Molecular dynamics
   Dmytro Bykov           : SCF Hessian
   Vijay G. Chilkuri      : MRCI spin determinant printing, contributions to CSF-ICE
   Dipayan Datta          : RHF DLPNO-CCSD density
   Achintya Kumar Dutta   : EOM-CC, STEOM-CC
   Dmitry Ganyushin       : Spin-Orbit,Spin-Spin,Magnetic field MRCI
   Miquel Garcia          : C-PCM Hessian, Gaussian charge scheme
   Yang Guo               : DLPNO-NEVPT2, CIM, IAO-localization
   Andreas Hansen         : Spin unrestricted coupled pair/coupled cluster methods
   Benjamin Helmich-Paris : CASSCF linear response (MC-RPA)
   Lee Huntington         : MR-EOM, pCC
   Robert Izsak           : Overlap fitted RIJCOSX, COSX-SCS-MP3, EOM
   Christian Kollmar      : KDIIS, OOCD, Brueckner-CCSD(T), CCSD density
   Simone Kossmann        : Meta GGA functionals, TD-DFT gradient, OOMP2, MP2 Hessian
   Martin Krupicka        : AUTO-CI
   Lucas Lang             : DCDCAS
   Dagmar Lenk            : GEPOL surface, SMD
   Dimitrios Liakos       : Extrapolation schemes; Compound Job, initial MDCI parallelization
   Dimitrios Manganas     : Further ROCIS development; embedding schemes
   Dimitrios Pantazis     : SARC Basis sets
   Taras Petrenko         : DFT Hessian,TD-DFT gradient, ASA, ECA, R-Raman, ABS, FL, XAS/XES, NRVS
   Peter Pinski           : DLPNO-MP2, DLPNO-MP2 Gradient
   Christoph Reimann      : Effective Core Potentials
   Marius Retegan         : Local ZFS, SOC
   Christoph Riplinger    : Optimizer, TS searches, QM/MM, DLPNO-CCSD(T), (RO)-DLPNO pert. Triples
   Tobias Risthaus        : Range-separated hybrids, TD-DFT gradient, RPA, STAB
   Michael Roemelt        : Original ROCIS implementation
   Masaaki Saitow         : Open-shell DLPNO-CCSD energy and density
   Barbara Sandhoefer     : DKH picture change effects
   Avijit Sen             : IP-ROCIS
   Kantharuban Sivalingam : CASSCF convergence, NEVPT2, FIC-MRCI
   Bernardo de Souza      : ESD, SOC TD-DFT
   Georgi Stoychev        : AutoAux, RI-MP2 NMR
   Willem Van den Heuvel  : Paramagnetic NMR
   Boris Wezisla          : Elementary symmetry handling
   Frank Wennmohs         : Technical directorship


 We gratefully acknowledge several colleagues who have allowed us to
 interface, adapt or use parts of their codes:
   Stefan Grimme, W. Hujo, H. Kruse,             : VdW corrections, initial TS optimization,
                  C. Bannwarth                     DFT functionals, gCP, sTDA/sTD-DF
   Ed Valeev, F. Pavosevic, A. Kumar             : LibInt (2-el integral package), F12 methods
   Garnet Chan, S. Sharma, J. Yang, R. Olivares  : DMRG
   Ulf Ekstrom                                   : XCFun DFT Library
   Mihaly Kallay                                 : mrcc  (arbitrary order and MRCC methods)
   Andreas Klamt, Michael Diedenhofen            : otool_cosmo (COSMO solvation model)
   Jiri Pittner, Ondrej Demel                    : Mk-CCSD
   Frank Weinhold                                : gennbo (NPA and NBO analysis)
   Christopher J. Cramer and Donald G. Truhlar   : smd solvation model
   Lars Goerigk                                  : TD-DFT with DH, B97 family of functionals
   V. Asgeirsson, H. Jonsson                     : NEB implementation
   FAccTs GmbH                                   : IRC, NEB, NEB-TS, Multilevel, MM, QM/MM, CI optimization
   S Lehtola, MJT Oliveira, MAL Marques          : LibXC Library


 Your calculation uses the libint2 library for the computation of 2-el integrals
 For citations please refer to: http://libint.valeyev.net

 Your ORCA version has been built with support for libXC version: 4.2.3
 For citations please refer to: https://tddft.org/programs/libxc/

 This ORCA versions uses:
   CBLAS   interface :  Fast vector & matrix operations
   LAPACKE interface :  Fast linear algebra routines
   SCALAPACK package :  Parallel linear algebra routines


Your calculation utilizes the atom-pairwise dispersion correction
with the Becke-Johnson damping scheme (D3BJ)
Cite in your paper:
S.Grimme, S.Ehrlich, L.Goerigk, J Comput Chem, (2011), 32, 1456–1465 
S.Grimme, J.Antony, S.Ehrlich and H.Krieg, J.Chem.Phys., 132, (2010), 154104 
   

----- Orbital basis set information -----
Your calculation utilizes the basis: def2-SV(P)
   F. Weigend and R. Ahlrichs, Phys. Chem. Chem. Phys. 7, 3297 (2005).

----- AuxJ basis set information -----
Your calculation utilizes the auxiliary basis: def2/J
   F. Weigend, Phys. Chem. Chem. Phys. 8, 1057 (2006).

================================================================================
                                        WARNINGS
                       Please study these warnings very carefully!
================================================================================


WARNING: Geometry Optimization
  ===> : Switching off AutoStart
         For restart on a previous wavefunction, please use MOREAD

INFO   : the flag for use of LIBINT has been found!

================================================================================
                                       INPUT FILE
================================================================================
NAME = orca8.inp
|  1> ! UKS B3LYP def2-SV(P) def2/J D3BJ Opt
|  2> %scf Convergence VeryTight
|  3> SmearTemp 2000
|  4> maxiter 500
|  5> end
|  6> *xyz 0 2
|  7> C -0.078024 0.057177 0.373548
|  8> C 1.265433 -0.608904 0.147611
|  9> C -1.175437 -0.828589 -0.146067
| 10> C -0.094988 1.436795 -0.232256
| 11> H 1.821705 -0.151474 -0.707389
| 12> H 1.875218 -0.458865 1.074147
| 13> H 1.106826 -1.685632 -0.082089
| 14> H -0.962242 -1.860898 0.229844
| 15> H -1.196159 -0.908035 -1.249728
| 16> H -2.174879 -0.573486 0.259115
| 17> H -0.392092 2.215481 0.515502
| 18> H 0.958985 1.702901 -0.50014
| 19> H -0.70523 1.500086 -1.15741
| 20> *
| 21> 
| 22>                          ****END OF INPUT****
================================================================================

                       *****************************
                       * Geometry Optimization Run *
                       *****************************

Geometry optimization settings:
Update method            Update   .... BFGS
Choice of coordinates    CoordSys .... Z-matrix Internals
Initial Hessian          InHess   .... Almoef's Model

Convergence Tolerances:
Energy Change            TolE     ....  5.0000e-06 Eh
Max. Gradient            TolMAXG  ....  3.0000e-04 Eh/bohr
RMS Gradient             TolRMSG  ....  1.0000e-04 Eh/bohr
Max. Displacement        TolMAXD  ....  4.0000e-03 bohr
RMS Displacement         TolRMSD  ....  2.0000e-03 bohr
Strict Convergence                ....  False
------------------------------------------------------------------------------
                        ORCA OPTIMIZATION COORDINATE SETUP
------------------------------------------------------------------------------

The optimization will be done in new redundant internal coordinates
Making redundant internal coordinates   ...  (new redundants) done
Evaluating the initial hessian          ...  (Almloef) done
Evaluating the coordinates              ...  done
Calculating the B-matrix                .... done
Calculating the G-matrix                .... done
Diagonalizing the G-matrix              .... done
The first mode is                       ....   18
The number of degrees of freedom        ....   33

    -----------------------------------------------------------------
                    Redundant Internal Coordinates


    -----------------------------------------------------------------
         Definition                    Initial Value    Approx d2E/dq
    -----------------------------------------------------------------
      1. B(C   1,C   0)                  1.5164         0.392656   
      2. B(C   2,C   0)                  1.5030         0.412586   
      3. B(C   3,C   0)                  1.5069         0.406718   
      4. B(H   4,C   1)                  1.1179         0.325017   
      5. B(H   5,C   1)                  1.1193         0.323360   
      6. B(H   6,C   1)                  1.1123         0.331748   
      7. B(H   7,C   2)                  1.1191         0.323570   
      8. B(H   8,C   2)                  1.1067         0.338659   
      9. B(H   9,C   2)                  1.1082         0.336796   
     10. B(H  10,C   3)                  1.1197         0.322859   
     11. B(H  11,C   3)                  1.1196         0.323034   
     12. B(H  12,C   3)                  1.1101         0.334474   
     13. A(C   1,C   0,C   3)          110.6234         0.371852   
     14. A(C   2,C   0,C   3)          113.1019         0.375040   
     15. A(C   1,C   0,C   2)          109.6638         0.372771   
     16. A(H   4,C   1,H   5)          107.8888         0.281465   
     17. A(H   5,C   1,H   6)          112.2336         0.282360   
     18. A(H   4,C   1,H   6)          108.0053         0.282584   
     19. A(C   0,C   1,H   4)          112.0282         0.321529   
     20. A(C   0,C   1,H   5)          107.4838         0.321260   
     21. A(C   0,C   1,H   6)          109.2461         0.322611   
     22. A(H   7,C   2,H   9)          105.1491         0.283051   
     23. A(C   0,C   2,H   9)          113.3554         0.326052   
     24. A(H   7,C   2,H   8)          105.8026         0.283293   
     25. A(C   0,C   2,H   8)          113.6252         0.326348   
     26. A(H   8,C   2,H   9)          111.3613         0.285063   
     27. A(C   0,C   2,H   7)          106.7624         0.323912   
     28. A(H  11,C   3,H  12)          107.7311         0.282674   
     29. A(H  10,C   3,H  12)          111.7799         0.282651   
     30. A(C   0,C   3,H  12)          113.1688         0.324915   
     31. A(H  10,C   3,H  11)          104.1398         0.281131   
     32. A(C   0,C   3,H  11)          107.6507         0.323064   
     33. A(C   0,C   3,H  10)          111.7905         0.323035   
     34. D(H   6,C   1,C   0,C   2)    -15.4525         0.011462   
     35. D(H   4,C   1,C   0,C   2)    104.1809         0.011462   
     36. D(H   6,C   1,C   0,C   3)   -140.8804         0.011462   
     37. D(H   5,C   1,C   0,C   2)   -137.4694         0.011462   
     38. D(H   4,C   1,C   0,C   3)    -21.2470         0.011462   
     39. D(H   5,C   1,C   0,C   3)     97.1028         0.011462   
     40. D(H   7,C   2,C   0,C   1)     46.4760         0.012602   
     41. D(H   9,C   2,C   0,C   3)    -74.2323         0.012602   
     42. D(H   9,C   2,C   0,C   1)    161.7756         0.012602   
     43. D(H   8,C   2,C   0,C   3)     54.2253         0.012602   
     44. D(H   8,C   2,C   0,C   1)    -69.7668         0.012602   
     45. D(H   7,C   2,C   0,C   3)    170.4681         0.012602   
     46. D(H  11,C   3,C   0,C   1)    -12.0914         0.012259   
     47. D(H  10,C   3,C   0,C   2)    110.6597         0.012259   
     48. D(H  10,C   3,C   0,C   1)   -125.8754         0.012259   
     49. D(H  12,C   3,C   0,C   2)    -16.6221         0.012259   
     50. D(H  12,C   3,C   0,C   1)    106.8427         0.012259   
     51. D(H  11,C   3,C   0,C   2)   -135.5562         0.012259   
    -----------------------------------------------------------------

Number of atoms                         .... 13
Number of degrees of freedom            .... 51

         *************************************************************
         *                GEOMETRY OPTIMIZATION CYCLE   1            *
         *************************************************************
---------------------------------
CARTESIAN COORDINATES (ANGSTROEM)
---------------------------------
  C     -0.078024    0.057177    0.373548
  C      1.265433   -0.608904    0.147611
  C     -1.175437   -0.828589   -0.146067
  C     -0.094988    1.436795   -0.232256
  H      1.821705   -0.151474   -0.707389
  H      1.875218   -0.458865    1.074147
  H      1.106826   -1.685632   -0.082089
  H     -0.962242   -1.860898    0.229844
  H     -1.196159   -0.908035   -1.249728
  H     -2.174879   -0.573486    0.259115
  H     -0.392092    2.215481    0.515502
  H      0.958985    1.702901   -0.500140
  H     -0.705230    1.500086   -1.157410

----------------------------
CARTESIAN COORDINATES (A.U.)
----------------------------
  NO LB      ZA    FRAG     MASS         X           Y           Z
   0 C     6.0000    0    12.011   -0.147444    0.108049    0.705903
   1 C     6.0000    0    12.011    2.391322   -1.150662    0.278944
   2 C     6.0000    0    12.011   -2.221254   -1.565806   -0.276027
   3 C     6.0000    0    12.011   -0.179501    2.715149   -0.438900
   4 H     1.0000    0     1.008    3.442524   -0.286244   -1.336771
   5 H     1.0000    0     1.008    3.543648   -0.867129    2.029844
   6 H     1.0000    0     1.008    2.091598   -3.185383   -0.155126
   7 H     1.0000    0     1.008   -1.818374   -3.516588    0.434342
   8 H     1.0000    0     1.008   -2.260413   -1.715937   -2.361644
   9 H     1.0000    0     1.008   -4.109926   -1.083731    0.489656
  10 H     1.0000    0     1.008   -0.740946    4.186652    0.974158
  11 H     1.0000    0     1.008    1.812219    3.218017   -0.945128
  12 H     1.0000    0     1.008   -1.332692    2.834752   -2.187188

--------------------------------
INTERNAL COORDINATES (ANGSTROEM)
--------------------------------
 C      0   0   0     0.000000000000     0.00000000     0.00000000
 C      1   0   0     1.516439295646     0.00000000     0.00000000
 C      1   2   0     1.502962556935   109.66379258     0.00000000
 C      1   2   3     1.506861669045   110.62339823   234.57211492
 H      2   1   3     1.117902385222   112.02819761   104.18087602
 H      2   1   3     1.119293709016   107.48381714   222.53063990
 H      2   1   3     1.112322550537   109.24611216   344.54752470
 H      3   1   2     1.119117089239   106.76240499    46.47602117
 H      3   1   2     1.106710744107   113.62524351   290.23319875
 H      3   1   2     1.108212211220   113.35541602   161.77559855
 H      4   1   2     1.119716347999   111.79053829   234.12457840
 H      4   1   2     1.119568365675   107.65066419   347.90860053
 H      4   1   2     1.110095028798   113.16875306   106.84272130

---------------------------
INTERNAL COORDINATES (A.U.)
---------------------------
 C      0   0   0     0.000000000000     0.00000000     0.00000000
 C      1   0   0     2.865654967487     0.00000000     0.00000000
 C      1   2   0     2.840187622146   109.66379258     0.00000000
 C      1   2   3     2.847555876198   110.62339823   234.57211492
 H      2   1   3     2.112529352526   112.02819761   104.18087602
 H      2   1   3     2.115158573461   107.48381714   222.53063990
 H      2   1   3     2.101984993100   109.24611216   344.54752470
 H      3   1   2     2.114824810453   106.76240499    46.47602117
 H      3   1   2     2.091380215830   113.62524351   290.23319875
 H      3   1   2     2.094217577473   113.35541602   161.77559855
 H      4   1   2     2.115957245392   111.79053829   234.12457840
 H      4   1   2     2.115677599328   107.65066419   347.90860053
 H      4   1   2     2.097775587055   113.16875306   106.84272130

---------------------
BASIS SET INFORMATION
---------------------
There are 2 groups of distinct atoms

 Group   1 Type C   : 7s4p1d contracted to 3s2p1d pattern {511/31/1}
 Group   2 Type H   : 4s contracted to 2s pattern {31}

Atom   0C    basis set group =>   1
Atom   1C    basis set group =>   1
Atom   2C    basis set group =>   1
Atom   3C    basis set group =>   1
Atom   4H    basis set group =>   2
Atom   5H    basis set group =>   2
Atom   6H    basis set group =>   2
Atom   7H    basis set group =>   2
Atom   8H    basis set group =>   2
Atom   9H    basis set group =>   2
Atom  10H    basis set group =>   2
Atom  11H    basis set group =>   2
Atom  12H    basis set group =>   2
---------------------------------
AUXILIARY/J BASIS SET INFORMATION
---------------------------------
There are 2 groups of distinct atoms

 Group   1 Type C   : 12s5p4d2f1g contracted to 6s4p3d1f1g pattern {711111/2111/211/2/1}
 Group   2 Type H   : 5s2p1d contracted to 3s1p1d pattern {311/2/1}

Atom   0C    basis set group =>   1
Atom   1C    basis set group =>   1
Atom   2C    basis set group =>   1
Atom   3C    basis set group =>   1
Atom   4H    basis set group =>   2
Atom   5H    basis set group =>   2
Atom   6H    basis set group =>   2
Atom   7H    basis set group =>   2
Atom   8H    basis set group =>   2
Atom   9H    basis set group =>   2
Atom  10H    basis set group =>   2
Atom  11H    basis set group =>   2
Atom  12H    basis set group =>   2
------------------------------------------------------------------------------
                           ORCA GTO INTEGRAL CALCULATION
------------------------------------------------------------------------------

                         BASIS SET STATISTICS AND STARTUP INFO

 # of primitive gaussian shells          ...   84
 # of primitive gaussian functions       ...  132
 # of contracted shells                  ...   42
 # of contracted basis functions         ...   74
 Highest angular momentum                ...    2
 Maximum contraction depth               ...    5
 Integral package used                   ... LIBINT
 Integral threshhold            Thresh   ...  1.000e-12
 Primitive cut-off              TCut     ...  1.000e-14


------------------------------ INTEGRAL EVALUATION ----------------------------


 * One electron integrals 
 Pre-screening matrix                    ... done
 Shell pair data                         ... done (   0.000 sec)

-------------------------------------------------------------------------------
                                 ORCA SCF
-------------------------------------------------------------------------------

------------
SCF SETTINGS
------------
Hamiltonian:
 Density Functional     Method          .... DFT(GTOs)
 Exchange Functional    Exchange        .... B88
   X-Alpha parameter    XAlpha          ....  0.666667
   Becke's b parameter  XBeta           ....  0.004200
 Correlation Functional Correlation     .... LYP
 LDA part of GGA corr.  LDAOpt          .... VWN-5
 Gradients option       PostSCFGGA      .... off
 Hybrid DFT is turned on
   Fraction HF Exchange ScalHFX         ....  0.200000
   Scaling of DF-GGA-X  ScalDFX         ....  0.720000
   Scaling of DF-GGA-C  ScalDFC         ....  0.810000
   Scaling of DF-LDA-C  ScalLDAC        ....  1.000000
   Perturbative correction              ....  0.000000
   Density functional embedding theory  .... OFF
   NL short-range parameter             ....  4.800000


General Settings:
 Integral files         IntName         .... orca8
 Hartree-Fock type      HFTyp           .... UHF
 Total Charge           Charge          ....    0
 Multiplicity           Mult            ....    2
 Number of Electrons    NEL             ....   33
 Basis Dimension        Dim             ....   74
 Nuclear Repulsion      ENuc            ....    126.0474235815 Eh

Convergence Acceleration:
 DIIS                   CNVDIIS         .... on
   Start iteration      DIISMaxIt       ....    12
   Startup error        DIISStart       ....  0.200000
   # of expansion vecs  DIISMaxEq       ....     5
   Bias factor          DIISBfac        ....   1.050
   Max. coefficient     DIISMaxC        ....  10.000
 Newton-Raphson         CNVNR           .... off
 SOSCF                  CNVSOSCF        .... off
 Level Shifting         CNVShift        .... on
   Level shift para.    LevelShift      ....    0.2500
   Turn off err/grad.   ShiftErr        ....    0.0010
 Zerner damping         CNVZerner       .... off
 Static damping         CNVDamp         .... on
   Fraction old density DampFac         ....    0.7000
   Max. Damping (<1)    DampMax         ....    0.9800
   Min. Damping (>=0)   DampMin         ....    0.0000
   Turn off err/grad.   DampErr         ....    0.1000
 Fernandez-Rico         CNVRico         .... off

SCF Procedure:
 Maximum # iterations   MaxIter         ....   500
 SCF integral mode      SCFMode         .... Direct
   Integral package                     .... LIBINT
 Reset frequency        DirectResetFreq ....    20
 Integral Threshold     Thresh          ....  1.000e-12 Eh
 Primitive CutOff       TCut            ....  1.000e-14 Eh

Convergence Tolerance:
 Convergence Check Mode ConvCheckMode   .... Total+1el-Energy
 Convergence forced     ConvForced      .... 0
 Energy Change          TolE            ....  1.000e-09 Eh
 1-El. energy change                    ....  1.000e-06 Eh
 DIIS Error             TolErr          ....  1.000e-08


Diagonalization of the overlap matrix:
Smallest eigenvalue                        ... 2.002e-03
Time for diagonalization                   ...    0.077 sec
Threshold for overlap eigenvalues          ... 1.000e-08
Number of eigenvalues below threshold      ... 0
Time for construction of square roots      ...    0.362 sec
Total time needed                          ...    0.439 sec

-------------------
DFT GRID GENERATION
-------------------

General Integration Accuracy     IntAcc      ...  4.340
Radial Grid Type                 RadialGrid  ... Gauss-Chebyshev
Angular Grid (max. acc.)         AngularGrid ... Lebedev-110
Angular grid pruning method      GridPruning ... 3 (G Style)
Weight generation scheme         WeightScheme... Becke
Basis function cutoff            BFCut       ...    1.0000e-12
Integration weight cutoff        WCut        ...    1.0000e-14
Grids for H and He will be reduced by one unit

# of grid points (after initial pruning)     ...  13770 (   0.0 sec)
# of grid points (after weights+screening)   ...  12875 (   0.0 sec)
nearest neighbour list constructed           ...    0.0 sec
Grid point re-assignment to atoms done       ...    0.0 sec
Grid point division into batches done        ...    0.0 sec
Reduced shell lists constructed in    0.1 sec

Total number of grid points                  ...    12875
Total number of batches                      ...      209
Average number of points per batch           ...       61
Average number of grid points per atom       ...      990
Average number of shells per batch           ...    37.36 (88.96%)
Average number of basis functions per batch  ...    66.68 (90.10%)
Average number of large shells per batch     ...    32.53 (87.08%)
Average number of large basis fcns per batch ...    57.69 (86.52%)
Maximum spatial batch extension              ...  21.79, 23.69, 20.63 au
Average spatial batch extension              ...   4.14,  4.13,  4.01 au

Time for grid setup =    0.235 sec

------------------------------
INITIAL GUESS: MODEL POTENTIAL
------------------------------
Loading Hartree-Fock densities                     ... done
Calculating cut-offs                               ... done
Setting up the integral package                    ... done
Initializing the effective Hamiltonian             ... done
Starting the Coulomb interaction                   ... done (   0.0 sec)
Reading the grid                                   ... done
Mapping shells                                     ... done
Starting the XC term evaluation                    ... done (   0.1 sec)
  promolecular density results
     # of electrons  =     32.999979051
     EX              =    -23.178920888
     EC              =     -1.031120486
     EX+EC           =    -24.210041374
Transforming the Hamiltonian                       ... done (   0.0 sec)
Diagonalizing the Hamiltonian                      ... done (   0.0 sec)
Back transforming the eigenvectors                 ... done (   0.0 sec)
Now organizing SCF variables                       ... done
                      ------------------
                      INITIAL GUESS DONE (   0.5 sec)
                      ------------------
--------------
SCF ITERATIONS
--------------
ITER       Energy         Delta-E        Max-DP      RMS-DP      [F,P]     Damp
               ***  Starting incremental Fock matrix formation  ***
  0   -157.3589398206   0.000000000000 0.04241249  0.00224766  0.1690315 0.7000
  1   -157.4329483559  -0.074008535348 0.02630490  0.00163509  0.0879634 0.7000
                               ***Turning on DIIS***
  2   -157.4627964634  -0.029848107522 0.04088010  0.00265188  0.0328666 0.0000
  3   -157.5026081032  -0.039811639796 0.01961186  0.00117853  0.0483547 0.0000
  4   -157.5161592160  -0.013551112748 0.00395552  0.00034801  0.0105922 0.0000
  5   -157.5169212967  -0.000762080725 0.00192798  0.00013423  0.0021152 0.0000
  6   -157.5169807907  -0.000059493970 0.00136555  0.00008383  0.0005001 0.0000
  7   -157.5169902052  -0.000009414513 0.00040059  0.00001321  0.0002953 0.0000
  8   -157.5169907975  -0.000000592294 0.00018120  0.00000516  0.0001349 0.0000
  9   -157.5169909485  -0.000000150983 0.00003901  0.00000181  0.0000158 0.0000
 10   -157.5169909627  -0.000000014223 0.00001435  0.00000063  0.0000048 0.0000
 11   -157.5169909649  -0.000000002264 0.00000621  0.00000029  0.0000024 0.0000
 12   -157.5169909655  -0.000000000511 0.00000210  0.00000011  0.0000012 0.0000
 13   -157.5169909656  -0.000000000112 0.00000219  0.00000011  0.0000004 0.0000
 14   -157.5169909656  -0.000000000039 0.00000029  0.00000001  0.0000003 0.0000
 15   -157.5169909656   0.000000000006 0.00000036  0.00000002  0.0000001 0.0000
                 **** Energy Check signals convergence ****

 Fermi smearing  (ALPHA): E(HOMO(Eh)) = -0.320967 MUE = -0.071578 gap=   7.084 eV
 Fermi smearing   (BETA): E(HOMO(Eh)) = -0.315373 MUE = -0.182655 gap=   7.191 eV

N_FOD(alpha) =  0.000000
 N_FOD(beta) =  0.000000
       N_FOD =  0.000000

               *****************************************************
               *                     SUCCESS                       *
               *           SCF CONVERGED AFTER  16 CYCLES          *
               *****************************************************

Setting up the final grid:

General Integration Accuracy     IntAcc      ...  4.670
Radial Grid Type                 RadialGrid  ... Gauss-Chebyshev
Angular Grid (max. acc.)         AngularGrid ... Lebedev-302
Angular grid pruning method      GridPruning ... 3 (G Style)
Weight generation scheme         WeightScheme... Becke
Basis function cutoff            BFCut       ...    1.0000e-12
Integration weight cutoff        WCut        ...    1.0000e-14
Grids for H and He will be reduced by one unit

# of grid points (after initial pruning)     ...  55394 (   0.0 sec)
# of grid points (after weights+screening)   ...  51198 (   0.1 sec)
nearest neighbour list constructed           ...    0.0 sec
Grid point re-assignment to atoms done       ...    0.0 sec
Grid point division into batches done        ...    0.2 sec
Reduced shell lists constructed in    0.4 sec

Total number of grid points                  ...    51198
Total number of batches                      ...      806
Average number of points per batch           ...       63
Average number of grid points per atom       ...     3938
Average number of shells per batch           ...    34.91 (83.12%)
Average number of basis functions per batch  ...    62.07 (83.88%)
Average number of large shells per batch     ...    29.65 (84.92%)
Average number of large basis fcns per batch ...    52.27 (84.20%)
Maximum spatial batch extension              ...  19.15, 18.69, 19.19 au
Average spatial batch extension              ...   2.61,  2.63,  2.62 au

Final grid set up in    0.7 sec
Final integration                            ... done (   3.3 sec)
Change in XC energy                          ...     0.000152439
Integrated number of electrons               ...    33.000032857
Previous integrated no of electrons          ...    33.001652569

----------------
TOTAL SCF ENERGY
----------------

Total Energy       :         -157.51683853 Eh           -4286.25109 eV

Components:
Nuclear Repulsion  :          126.04742358 Eh            3429.92477 eV
Electronic Energy  :         -283.56426211 Eh           -7716.17585 eV
One Electron Energy:         -459.69117395 Eh          -12508.83278 eV
Two Electron Energy:          176.12691185 Eh            4792.65693 eV

Virial components:
Potential Energy   :         -313.32280001 Eh           -8525.94684 eV
Kinetic Energy     :          155.80596148 Eh            4239.69575 eV
Virial Ratio       :            2.01098082


DFT components:
N(Alpha)           :       17.000018038851 electrons
N(Beta)            :       16.000014818131 electrons
N(Total)           :       33.000032856981 electrons
E(X)               :      -18.870131810969 Eh       
E(C)               :       -1.221352714925 Eh       
E(XC)              :      -20.091484525893 Eh       
DFET-embed. en.    :        0.000000000000 Eh       

---------------
SCF CONVERGENCE
---------------

  Last Energy change         ...    1.5291e-11  Tolerance :   1.0000e-09
  Last MAX-Density change    ...    2.1488e-07  Tolerance :   1.0000e-08
  Last RMS-Density change    ...    1.5745e-08  Tolerance :   1.0000e-09
  Last DIIS Error            ...    1.8621e-08  Tolerance :   1.0000e-08

             **** THE GBW FILE WAS UPDATED (orca8.gbw) ****
             **** DENSITY FILE WAS UPDATED (orca8.scfp) ****
             **** ENERGY FILE WAS UPDATED (orca8.en.tmp) ****
             **** THE GBW FILE WAS UPDATED (orca8.gbw) ****
             **** DENSITY FILE WAS UPDATED (orca8.scfp) ****
----------------
ORBITAL ENERGIES
----------------
                 SPIN UP ORBITALS
  NO   OCC          E(Eh)            E(eV) 
   0   1.0000     -10.190801      -277.3058 
   1   1.0000     -10.169970      -276.7390 
   2   1.0000     -10.169121      -276.7158 
   3   1.0000     -10.168407      -276.6964 
   4   1.0000      -0.797235       -21.6939 
   5   1.0000      -0.675600       -18.3840 
   6   1.0000      -0.668762       -18.1980 
   7   1.0000      -0.525534       -14.3005 
   8   1.0000      -0.447061       -12.1652 
   9   1.0000      -0.438777       -11.9397 
  10   1.0000      -0.424794       -11.5592 
  11   1.0000      -0.395400       -10.7594 
  12   1.0000      -0.389386       -10.5957 
  13   1.0000      -0.346654        -9.4329 
  14   1.0000      -0.331218        -9.0129 
  15   1.0000      -0.320967        -8.7340 
  16   1.0000      -0.201748        -5.4899 
  17   0.0000       0.058593         1.5944 
  18   0.0000       0.103598         2.8190 
  19   0.0000       0.107361         2.9214 
  20   0.0000       0.113672         3.0932 
  21   0.0000       0.119450         3.2504 
  22   0.0000       0.133106         3.6220 
  23   0.0000       0.142367         3.8740 
  24   0.0000       0.156979         4.2716 
  25   0.0000       0.173229         4.7138 
  26   0.0000       0.206792         5.6271 
  27   0.0000       0.265032         7.2119 
  28   0.0000       0.292819         7.9680 
  29   0.0000       0.417327        11.3560 
  30   0.0000       0.442136        12.0311 
  31   0.0000       0.452892        12.3238 
  32   0.0000       0.489266        13.3136 
  33   0.0000       0.502442        13.6721 
  34   0.0000       0.512406        13.9433 
  35   0.0000       0.547348        14.8941 
  36   0.0000       0.589165        16.0320 
  37   0.0000       0.626830        17.0569 
  38   0.0000       0.645208        17.5570 
  39   0.0000       0.664741        18.0885 
  40   0.0000       0.672425        18.2976 
  41   0.0000       0.680639        18.5211 
  42   0.0000       0.681766        18.5518 
  43   0.0000       0.701697        19.0941 
  44   0.0000       0.715382        19.4665 
  45   0.0000       0.724587        19.7170 
  46   0.0000       0.726260        19.7625 
  47   0.0000       0.732603        19.9351 
  48   0.0000       0.742476        20.2038 
  49   0.0000       0.753979        20.5168 
  50   0.0000       0.770181        20.9577 
  51   0.0000       0.917292        24.9608 
  52   0.0000       0.947038        25.7702 
  53   0.0000       0.974178        26.5087 
  54   0.0000       1.400463        38.1085 
  55   0.0000       1.418039        38.5868 
  56   0.0000       1.760626        47.9091 
  57   0.0000       1.764658        48.0188 
  58   0.0000       1.797100        48.9016 
  59   0.0000       1.805199        49.1220 
  60   0.0000       1.882000        51.2118 
  61   0.0000       1.934042        52.6279 
  62   0.0000       1.969195        53.5845 
  63   0.0000       2.048295        55.7369 
  64   0.0000       2.074413        56.4476 
  65   0.0000       2.125184        57.8292 
  66   0.0000       2.152674        58.5772 
  67   0.0000       2.176451        59.2242 
  68   0.0000       2.198341        59.8199 
  69   0.0000       2.425348        65.9971 
  70   0.0000       2.429849        66.1196 
  71   0.0000       2.458787        66.9070 
  72   0.0000       2.693397        73.2910 
  73   0.0000       2.710695        73.7618 

                 SPIN DOWN ORBITALS
  NO   OCC          E(Eh)            E(eV) 
   0   1.0000     -10.175888      -276.9000 
   1   1.0000     -10.170389      -276.7503 
   2   1.0000     -10.169524      -276.7268 
   3   1.0000     -10.168835      -276.7081 
   4   1.0000      -0.782140       -21.2831 
   5   1.0000      -0.673082       -18.3155 
   6   1.0000      -0.666148       -18.1268 
   7   1.0000      -0.507523       -13.8104 
   8   1.0000      -0.435325       -11.8458 
   9   1.0000      -0.429879       -11.6976 
  10   1.0000      -0.421211       -11.4617 
  11   1.0000      -0.389437       -10.5971 
  12   1.0000      -0.384274       -10.4566 
  13   1.0000      -0.345006        -9.3881 
  14   1.0000      -0.325791        -8.8652 
  15   1.0000      -0.315373        -8.5817 
  16   0.0000      -0.051102        -1.3905 
  17   0.0000       0.061075         1.6619 
  18   0.0000       0.105052         2.8586 
  19   0.0000       0.108132         2.9424 
  20   0.0000       0.115911         3.1541 
  21   0.0000       0.121784         3.3139 
  22   0.0000       0.139753         3.8029 
  23   0.0000       0.144826         3.9409 
  24   0.0000       0.159563         4.3419 
  25   0.0000       0.174692         4.7536 
  26   0.0000       0.215166         5.8550 
  27   0.0000       0.275455         7.4955 
  28   0.0000       0.303004         8.2452 
  29   0.0000       0.419210        11.4073 
  30   0.0000       0.447318        12.1721 
  31   0.0000       0.463999        12.6260 
  32   0.0000       0.496538        13.5115 
  33   0.0000       0.509813        13.8727 
  34   0.0000       0.545270        14.8375 
  35   0.0000       0.574661        15.6373 
  36   0.0000       0.599172        16.3043 
  37   0.0000       0.632357        17.2073 
  38   0.0000       0.650746        17.7077 
  39   0.0000       0.666811        18.1449 
  40   0.0000       0.678565        18.4647 
  41   0.0000       0.683155        18.5896 
  42   0.0000       0.684473        18.6255 
  43   0.0000       0.702853        19.1256 
  44   0.0000       0.718422        19.5492 
  45   0.0000       0.726925        19.7806 
  46   0.0000       0.730941        19.8899 
  47   0.0000       0.733427        19.9576 
  48   0.0000       0.746698        20.3187 
  49   0.0000       0.761394        20.7186 
  50   0.0000       0.779190        21.2028 
  51   0.0000       0.925646        25.1881 
  52   0.0000       0.952603        25.9216 
  53   0.0000       0.979944        26.6656 
  54   0.0000       1.416680        38.5498 
  55   0.0000       1.434522        39.0353 
  56   0.0000       1.762175        47.9512 
  57   0.0000       1.795654        48.8622 
  58   0.0000       1.803405        49.0731 
  59   0.0000       1.810893        49.2769 
  60   0.0000       1.894566        51.5537 
  61   0.0000       1.945405        52.9372 
  62   0.0000       1.986459        54.0543 
  63   0.0000       2.053872        55.8887 
  64   0.0000       2.080580        56.6155 
  65   0.0000       2.125836        57.8470 
  66   0.0000       2.153570        58.6016 
  67   0.0000       2.178595        59.2826 
  68   0.0000       2.202300        59.9276 
  69   0.0000       2.450085        66.6702 
  70   0.0000       2.456841        66.8540 
  71   0.0000       2.481607        67.5280 
  72   0.0000       2.707624        73.6782 
  73   0.0000       2.723809        74.1186 

                    ********************************
                    * MULLIKEN POPULATION ANALYSIS *
                    ********************************

------------------------------------------
FOD BASED MULLIKEN REDUCED ORBITAL CHARGES
------------------------------------------
  0 C s       :     0.000000  s :     0.000000
      pz      :     0.000000  p :     0.000000
      px      :     0.000000
      py      :     0.000000
      dz2     :     0.000000  d :     0.000000
      dxz     :     0.000000
      dyz     :     0.000000
      dx2y2   :     0.000000
      dxy     :     0.000000
  1 C s       :    -0.000000  s :    -0.000000
      pz      :     0.000000  p :     0.000000
      px      :     0.000000
      py      :     0.000000
      dz2     :     0.000000  d :     0.000000
      dxz     :     0.000000
      dyz     :     0.000000
      dx2y2   :     0.000000
      dxy     :     0.000000
  2 C s       :    -0.000000  s :    -0.000000
      pz      :     0.000000  p :     0.000000
      px      :     0.000000
      py      :     0.000000
      dz2     :     0.000000  d :     0.000000
      dxz     :     0.000000
      dyz     :     0.000000
      dx2y2   :     0.000000
      dxy     :     0.000000
  3 C s       :    -0.000000  s :    -0.000000
      pz      :     0.000000  p :     0.000000
      px      :     0.000000
      py      :     0.000000
      dz2     :     0.000000  d :     0.000000
      dxz     :     0.000000
      dyz     :     0.000000
      dx2y2   :     0.000000
      dxy     :     0.000000
  4 H s       :     0.000000  s :     0.000000
  5 H s       :     0.000000  s :     0.000000
  6 H s       :     0.000000  s :     0.000000
  7 H s       :     0.000000  s :     0.000000
  8 H s       :     0.000000  s :     0.000000
  9 H s       :     0.000000  s :     0.000000
 10 H s       :     0.000000  s :     0.000000
 11 H s       :     0.000000  s :     0.000000
 12 H s       :     0.000000  s :     0.000000


                     *******************************
                     * LOEWDIN POPULATION ANALYSIS *
                     *******************************

-------------------------------------------
LOEWDIN ATOMIC CHARGES AND SPIN POPULATIONS
-------------------------------------------
   0 C :   -0.073561    0.843078
   1 C :   -0.317933   -0.010084
   2 C :   -0.318595   -0.008966
   3 C :   -0.317248   -0.009443
   4 H :    0.112821    0.030427
   5 H :    0.122471    0.027619
   6 H :    0.110783    0.003853
   7 H :    0.107446    0.003651
   8 H :    0.116647    0.049157
   9 H :    0.112728    0.011839
  10 H :    0.118833    0.025755
  11 H :    0.109274    0.007350
  12 H :    0.116334    0.025762

----------------------------------------------------
LOEWDIN REDUCED ORBITAL CHARGES AND SPIN POPULATIONS
----------------------------------------------------
CHARGE
  0 C s       :     2.935360  s :     2.935360
      pz      :     0.968936  p :     3.045297
      px      :     1.037279
      py      :     1.039082
      dz2     :     0.008964  d :     0.092905
      dxz     :     0.012123
      dyz     :     0.016771
      dx2y2   :     0.026210
      dxy     :     0.028837
  1 C s       :     2.965933  s :     2.965933
      pz      :     1.100857  p :     3.277426
      px      :     1.078321
      py      :     1.098248
      dz2     :     0.011877  d :     0.074574
      dxz     :     0.023729
      dyz     :     0.007518
      dx2y2   :     0.019571
      dxy     :     0.011879
  2 C s       :     2.957708  s :     2.957708
      pz      :     1.096300  p :     3.283271
      px      :     1.093094
      py      :     1.093878
      dz2     :     0.023372  d :     0.077616
      dxz     :     0.010802
      dyz     :     0.008950
      dx2y2   :     0.022388
      dxy     :     0.012103
  3 C s       :     2.959835  s :     2.959835
      pz      :     1.096067  p :     3.282222
      px      :     1.107774
      py      :     1.078381
      dz2     :     0.011240  d :     0.075192
      dxz     :     0.013835
      dyz     :     0.020546
      dx2y2   :     0.019195
      dxy     :     0.010376
  4 H s       :     0.887179  s :     0.887179
  5 H s       :     0.877529  s :     0.877529
  6 H s       :     0.889217  s :     0.889217
  7 H s       :     0.892554  s :     0.892554
  8 H s       :     0.883353  s :     0.883353
  9 H s       :     0.887272  s :     0.887272
 10 H s       :     0.881167  s :     0.881167
 11 H s       :     0.890726  s :     0.890726
 12 H s       :     0.883666  s :     0.883666

SPIN
  0 C s       :     0.084410  s :     0.084410
      pz      :     0.709247  p :     0.761555
      px      :     0.028857
      py      :     0.023451
      dz2     :     0.000152  d :    -0.002887
      dxz     :    -0.000641
      dyz     :    -0.001111
      dx2y2   :    -0.000518
      dxy     :    -0.000769
  1 C s       :    -0.001315  s :    -0.001315
      pz      :    -0.005950  p :    -0.020786
      px      :    -0.011585
      py      :    -0.003251
      dz2     :     0.000460  d :     0.012017
      dxz     :     0.009899
      dyz     :     0.000497
      dx2y2   :     0.000645
      dxy     :     0.000516
  2 C s       :    -0.001138  s :    -0.001138
      pz      :    -0.009090  p :    -0.020904
      px      :    -0.006632
      py      :    -0.005181
      dz2     :     0.006709  d :     0.013076
      dxz     :     0.002896
      dyz     :     0.002158
      dx2y2   :     0.000655
      dxy     :     0.000660
  3 C s       :    -0.000883  s :    -0.000883
      pz      :    -0.006101  p :    -0.020481
      px      :    -0.003700
      py      :    -0.010680
      dz2     :     0.003042  d :     0.011921
      dxz     :     0.000433
      dyz     :     0.005435
      dx2y2   :     0.002549
      dxy     :     0.000462
  4 H s       :     0.030427  s :     0.030427
  5 H s       :     0.027619  s :     0.027619
  6 H s       :     0.003853  s :     0.003853
  7 H s       :     0.003651  s :     0.003651
  8 H s       :     0.049157  s :     0.049157
  9 H s       :     0.011839  s :     0.011839
 10 H s       :     0.025755  s :     0.025755
 11 H s       :     0.007350  s :     0.007350
 12 H s       :     0.025762  s :     0.025762


                      *****************************
                      * MAYER POPULATION ANALYSIS *
                      *****************************

  NA   - Mulliken gross atomic population
  ZA   - Total nuclear charge
  QA   - Mulliken gross atomic charge
  VA   - Mayer's total valence
  BVA  - Mayer's bonded valence
  FA   - Mayer's free valence

  ATOM       NA         ZA         QA         VA         BVA        FA
  0 C      6.0858     6.0000    -0.0858     4.1397     3.4038     0.7359
  1 C      6.2711     6.0000    -0.2711     3.9147     3.9121     0.0026
  2 C      6.2616     6.0000    -0.2616     3.9473     3.9445     0.0028
  3 C      6.2517     6.0000    -0.2517     3.9118     3.9093     0.0024
  4 H      0.9016     1.0000     0.0984     0.9595     0.9579     0.0016
  5 H      0.8909     1.0000     0.1091     0.9501     0.9492     0.0008
  6 H      0.9085     1.0000     0.0915     0.9697     0.9696     0.0000
  7 H      0.9126     1.0000     0.0874     0.9564     0.9564     0.0000
  8 H      0.8995     1.0000     0.1005     0.9546     0.9506     0.0040
  9 H      0.9023     1.0000     0.0977     0.9526     0.9525     0.0002
 10 H      0.8962     1.0000     0.1038     0.9518     0.9511     0.0008
 11 H      0.9154     1.0000     0.0846     0.9644     0.9642     0.0001
 12 H      0.9030     1.0000     0.0970     0.9644     0.9633     0.0011

  Mayer bond orders larger than 0.100000
B(  0-C ,  1-C ) :   1.0865 B(  0-C ,  2-C ) :   1.1181 B(  0-C ,  3-C ) :   1.0861 
B(  1-C ,  4-H ) :   0.9389 B(  1-C ,  5-H ) :   0.9440 B(  1-C ,  6-H ) :   0.9566 
B(  2-C ,  7-H ) :   0.9553 B(  2-C ,  8-H ) :   0.9279 B(  2-C ,  9-H ) :   0.9536 
B(  3-C , 10-H ) :   0.9462 B(  3-C , 11-H ) :   0.9569 B(  3-C , 12-H ) :   0.9434 


-------
TIMINGS
-------

Total SCF time: 0 days 0 hours 2 min 16 sec 

Total time                  ....     136.165 sec
Sum of individual times     ....     108.432 sec  ( 79.6%)

Fock matrix formation       ....      94.658 sec  ( 69.5%)
  XC integration            ....      44.143 sec  ( 46.6% of F)
    Basis function eval.    ....       0.863 sec  (  2.0% of XC)
    Density eval.           ....       0.596 sec  (  1.4% of XC)
    XC-Functional eval.     ....       0.371 sec  (  0.8% of XC)
    XC-Potential eval.      ....       0.937 sec  (  2.1% of XC)
Diagonalization             ....       0.209 sec  (  0.2%)
Density matrix formation    ....       6.591 sec  (  4.8%)
Population analysis         ....       2.986 sec  (  2.2%)
Initial guess               ....       0.241 sec  (  0.2%)
Orbital Transformation      ....       0.000 sec  (  0.0%)
Orbital Orthonormalization  ....       0.000 sec  (  0.0%)
DIIS solution               ....       2.771 sec  (  2.0%)
Grid generation             ....       0.977 sec  (  0.7%)


-------------------------------------------------------------------------------
                          DFT DISPERSION CORRECTION                            
                                                                               
                              DFTD3 V3.1  Rev 1                                
                          USING Becke-Johnson damping                          
-------------------------------------------------------------------------------
The B3LYP functional is recognized
Active option DFTDOPT                   ...         4   

molecular C6(AA) [au] = 1132.917787 


            DFT-D V3
 parameters
 s6 scaling factor         :     1.0000 
 a1 scaling factor         :     0.3981 
 s8 scaling factor         :     1.9889 
 a2 scaling factor         :     4.4211 
 ad hoc parameters k1-k3   :    16.0000     1.3333    -4.0000 

 Edisp/kcal,au: -8.982827958521  -0.014315046022 
 E6   /kcal   :  -4.451889400 
 E8   /kcal   :  -4.530938558 
 % E8         :  50.440001512 

-------------------------   ----------------
Dispersion correction           -0.014315046
-------------------------   ----------------


-------------------------   --------------------
FINAL SINGLE POINT ENERGY      -157.531153572665
-------------------------   --------------------

------------------------------------------------------------------------------
                         ORCA SCF GRADIENT CALCULATION
------------------------------------------------------------------------------

Gradient of the Kohn-Sham DFT energy:
Kohn-Sham wavefunction type      ... UKS
Hartree-Fock exchange scaling    ...    0.200
Number of operators              ...    2
Number of atoms                  ...   13
Basis set dimensions             ...   74
Integral neglect threshold       ... 1.0e-12
Integral primitive cutoff        ... 1.0e-14

Nuclear repulsion gradient       ... done
One Electron Gradient            ... done
Pre-screening matrix             ... done
Starting the two electron gradient:
Two electron gradient done
Exchange-correlation gradient    ... done
Dispersion correction            ... done

------------------
CARTESIAN GRADIENT
------------------

   1   C   :   -0.005709072    0.006368040    0.055939229
   2   C   :   -0.003586231    0.001880564   -0.016593795
   3   C   :    0.007769373    0.021848956   -0.033489997
   4   C   :   -0.015640712   -0.020844195   -0.019861432
   5   H   :    0.002857832    0.003149477   -0.005724412
   6   H   :   -0.004257244    0.007529806    0.008110420
   7   H   :   -0.009342969   -0.003265150   -0.006947458
   8   H   :    0.007066667   -0.004101317    0.004384228
   9   H   :    0.000804151   -0.005515196    0.002419680
  10   H   :    0.001365391   -0.003647300    0.007350550
  11   H   :    0.005974739    0.001829696    0.009358415
  12   H   :    0.010433543   -0.003574566    0.000382574
  13   H   :    0.002264531   -0.001658815   -0.005328002

Difference to translation invariance:
           :    0.0000000000    0.0000000000    0.0000000000

Norm of the cartesian gradient     ...    0.0839133533
RMS gradient                       ...    0.0134368903
MAX gradient                       ...    0.0559392295

-------
TIMINGS
-------

Total SCF gradient time            ...        4.385 sec

One electron gradient       ....       0.029 sec  (  0.7%)
Prescreening matrices       ....       0.027 sec  (  0.6%)
Two electron gradient       ....       1.461 sec  ( 33.3%)
XC gradient                 ....       2.666 sec  ( 60.8%)
------------------------------------------------------------------------------
                         ORCA GEOMETRY RELAXATION STEP
------------------------------------------------------------------------------

Reading the OPT-File                    .... done
Getting information on internals        .... done
Copying old internal coords+grads       .... done
Making the new internal coordinates     .... (new redundants).... done
Validating the new internal coordinates .... (new redundants).... done
Calculating the B-matrix                .... done
Calculating the G,G- and P matrices     .... done
Transforming gradient to internals      .... done
Projecting the internal gradient        .... done
Number of atoms                         ....  13
Number of internal coordinates          ....  51
Current Energy                          ....  -157.531153573 Eh
Current gradient norm                   ....     0.083913353 Eh/bohr
Maximum allowed component of the step   ....  0.300
Current trust radius                    ....  0.300
Evaluating the initial hessian          ....  (Almloef) done
Projecting the Hessian                  .... done
Forming the augmented Hessian           .... done
Diagonalizing the augmented Hessian     .... done
Last element of RFO vector              ....  0.882266709
Lowest eigenvalues of augmented Hessian:
 -0.022952290  0.011635074  0.012333464  0.012897135  0.055397223
Length of the computed step             ....  0.533568683
Warning: the length of the step is outside the trust region - taking restricted step instead
The input lambda is                     ....    -0.022952
   iter:   1  x=   -0.044914  g=    8.865046 f(x)=     0.194696
   iter:   2  x=   -0.065362  g=    3.500913 f(x)=     0.071586
   iter:   3  x=   -0.075771  g=    1.853798 f(x)=     0.019295
   iter:   4  x=   -0.077502  g=    1.411870 f(x)=     0.002444
   iter:   5  x=   -0.077540  g=    1.352910 f(x)=     0.000052
   iter:   6  x=   -0.077540  g=    1.351651 f(x)=     0.000000
   iter:   7  x=   -0.077540  g=    1.351651 f(x)=     0.000000
The output lambda is                    ....    -0.077540 (7 iterations)
The final length of the internal step   ....  0.300000000
Converting the step to cartesian space:
 Initial RMS(Int)=    0.0420084025
Transforming coordinates:
 Iter   0:  RMS(Cart)=    0.0692063317 RMS(Int)=    0.0425515795
 Iter   1:  RMS(Cart)=    0.0032486333 RMS(Int)=    0.0016757295
 Iter   2:  RMS(Cart)=    0.0001057210 RMS(Int)=    0.0000731045
 Iter   3:  RMS(Cart)=    0.0000075447 RMS(Int)=    0.0000051679
 Iter   4:  RMS(Cart)=    0.0000003847 RMS(Int)=    0.0000002890
 Iter   5:  RMS(Cart)=    0.0000000259 RMS(Int)=    0.0000000195
done
Storing new coordinates                 .... done

                                .--------------------.
          ----------------------|Geometry convergence|-------------------------
          Item                value                   Tolerance       Converged
          ---------------------------------------------------------------------
          RMS gradient        0.0077947674            0.0001000000      NO
          MAX gradient        0.0160170482            0.0003000000      NO
          RMS step            0.0420084025            0.0020000000      NO
          MAX step            0.1072092434            0.0040000000      NO
          ........................................................
          Max(Bonds)      0.0175      Max(Angles)    3.31
          Max(Dihed)        6.14      Max(Improp)    0.00
          ---------------------------------------------------------------------

The optimization has not yet converged - more geometry cycles are needed


    ---------------------------------------------------------------------------
                         Redundant Internal Coordinates
                            (Angstroem and degrees)

        Definition                    Value    dE/dq     Step     New-Value
    ----------------------------------------------------------------------------
     1. B(C   1,C   0)                1.5164 -0.013621  0.0153    1.5318   
     2. B(C   2,C   0)                1.5030 -0.010803  0.0117    1.5146   
     3. B(C   3,C   0)                1.5069 -0.016017  0.0175    1.5244   
     4. B(H   4,C   1)                1.1179  0.007093 -0.0093    1.1086   
     5. B(H   5,C   1)                1.1193  0.005402 -0.0071    1.1122   
     6. B(H   6,C   1)                1.1123  0.005927 -0.0077    1.1047   
     7. B(H   7,C   2)                1.1191  0.006605 -0.0087    1.1104   
     8. B(H   8,C   2)                1.1067 -0.002040  0.0026    1.1093   
     9. B(H   9,C   2)                1.1082  0.000619 -0.0008    1.1074   
    10. B(H  10,C   3)                1.1197  0.005933 -0.0078    1.1119   
    11. B(H  11,C   3)                1.1196  0.008881 -0.0117    1.1078   
    12. B(H  12,C   3)                1.1101  0.003106 -0.0040    1.1061   
    13. A(C   1,C   0,C   3)          110.62 -0.010031    3.31    113.93   
    14. A(C   2,C   0,C   3)          113.10  0.002120    1.16    114.26   
    15. A(C   1,C   0,C   2)          109.66 -0.007028    2.80    112.46   
    16. A(H   4,C   1,H   5)          107.89  0.005548   -0.84    107.05   
    17. A(H   5,C   1,H   6)          112.23  0.012452   -2.03    110.21   
    18. A(H   4,C   1,H   6)          108.01  0.002681   -0.26    107.75   
    19. A(C   0,C   1,H   4)          112.03  0.002466   -0.26    111.77   
    20. A(C   0,C   1,H   5)          107.48 -0.012861    1.85    109.33   
    21. A(C   0,C   1,H   6)          109.25 -0.009798    1.46    110.71   
    22. A(H   7,C   2,H   9)          105.15  0.001418    0.39    105.54   
    23. A(C   0,C   2,H   9)          113.36 -0.001065   -0.03    113.32   
    24. A(H   7,C   2,H   8)          105.80 -0.000100    0.40    106.21   
    25. A(C   0,C   2,H   8)          113.63  0.008041   -1.41    112.21   
    26. A(H   8,C   2,H   9)          111.36  0.003213   -1.26    110.10   
    27. A(C   0,C   2,H   7)          106.76 -0.012954    2.31    109.08   
    28. A(H  11,C   3,H  12)          107.73  0.002081   -0.03    107.70   
    29. A(H  10,C   3,H  12)          111.78  0.007296   -1.80    109.98   
    30. A(C   0,C   3,H  12)          113.17  0.003995   -0.79    112.38   
    31. A(H  10,C   3,H  11)          104.14  0.002067    0.27    104.41   
    32. A(C   0,C   3,H  11)          107.65 -0.011730    2.08    109.73   
    33. A(C   0,C   3,H  10)          111.79 -0.004519    0.53    112.32   
    34. D(H   6,C   1,C   0,C   2)    -15.45 -0.002222    1.66    -13.79   
    35. D(H   4,C   1,C   0,C   2)    104.18 -0.003819    2.14    106.32   
    36. D(H   6,C   1,C   0,C   3)   -140.88  0.007180   -4.16   -145.04   
    37. D(H   5,C   1,C   0,C   2)   -137.47 -0.003711    2.13   -135.34   
    38. D(H   4,C   1,C   0,C   3)    -21.25  0.005583   -3.68    -24.92   
    39. D(H   5,C   1,C   0,C   3)     97.10  0.005691   -3.69     93.41   
    40. D(H   7,C   2,C   0,C   1)     46.48  0.008065   -3.01     43.47   
    41. D(H   9,C   2,C   0,C   3)    -74.23 -0.015675    6.14    -68.09   
    42. D(H   9,C   2,C   0,C   1)    161.78  0.001184   -1.11    160.66   
    43. D(H   8,C   2,C   0,C   3)     54.23 -0.004865    3.06     57.29   
    44. D(H   8,C   2,C   0,C   1)    -69.77  0.011994   -4.19    -73.96   
    45. D(H   7,C   2,C   0,C   3)    170.47 -0.008794    4.25    174.71   
    46. D(H  11,C   3,C   0,C   1)    -12.09 -0.007930    3.19     -8.90   
    47. D(H  10,C   3,C   0,C   2)    110.66  0.014019   -5.64    105.02   
    48. D(H  10,C   3,C   0,C   1)   -125.88 -0.001267    1.39   -124.49   
    49. D(H  12,C   3,C   0,C   2)    -16.62  0.004540   -2.97    -19.59   
    50. D(H  12,C   3,C   0,C   1)    106.84 -0.010746    4.06    110.91   
    51. D(H  11,C   3,C   0,C   2)   -135.56  0.007356   -3.84   -139.40   
    ----------------------------------------------------------------------------

Time needed for optimization step       :     1.42 sec

         *************************************************************
         *                GEOMETRY OPTIMIZATION CYCLE   2            *
         *************************************************************
---------------------------------
CARTESIAN COORDINATES (ANGSTROEM)
---------------------------------
  C     -0.053213    0.042782    0.315899
  C      1.309674   -0.637575    0.154748
  C     -1.193849   -0.839208   -0.147930
  C     -0.101151    1.461628   -0.239316
  H      1.885706   -0.209146   -0.689990
  H      1.912521   -0.476503    1.075367
  H      1.186301   -1.718648   -0.035864
  H     -1.027984   -1.872301    0.223823
  H     -1.244229   -0.912233   -1.253682
  H     -2.177522   -0.532516    0.257914
  H     -0.431966    2.201521    0.521857
  H      0.920260    1.789468   -0.515978
  H     -0.735432    1.539287   -1.142161

----------------------------
CARTESIAN COORDINATES (A.U.)
----------------------------
  NO LB      ZA    FRAG     MASS         X           Y           Z
   0 C     6.0000    0    12.011   -0.100558    0.080846    0.596962
   1 C     6.0000    0    12.011    2.474924   -1.204841    0.292432
   2 C     6.0000    0    12.011   -2.256047   -1.585873   -0.279547
   3 C     6.0000    0    12.011   -0.191148    2.762078   -0.452243
   4 H     1.0000    0     1.008    3.563468   -0.395229   -1.303892
   5 H     1.0000    0     1.008    3.614140   -0.900461    2.032149
   6 H     1.0000    0     1.008    2.241784   -3.247774   -0.067772
   7 H     1.0000    0     1.008   -1.942607   -3.538137    0.422964
   8 H     1.0000    0     1.008   -2.351253   -1.723870   -2.369115
   9 H     1.0000    0     1.008   -4.114920   -1.006309    0.487386
  10 H     1.0000    0     1.008   -0.816297    4.160272    0.986168
  11 H     1.0000    0     1.008    1.739040    3.381604   -0.975057
  12 H     1.0000    0     1.008   -1.389766    2.908832   -2.158371

--------------------------------
INTERNAL COORDINATES (ANGSTROEM)
--------------------------------
 C      0   0   0     0.000000000000     0.00000000     0.00000000
 C      1   0   0     1.531768354277     0.00000000     0.00000000
 C      1   2   0     1.514626253984   112.28354042     0.00000000
 C      1   2   3     1.524364451157   113.77090940   228.63440795
 H      2   1   3     1.108578724053   111.76723388   106.38336499
 H      2   1   3     1.112163208790   109.32179585   224.70942859
 H      2   1   3     1.104659916111   110.69933430   346.27175960
 H      3   1   2     1.110402654138   109.07212143    43.45542558
 H      3   1   2     1.109305000991   112.19673841   286.05572810
 H      3   1   2     1.107421316858   113.29299167   160.66023424
 H      4   1   2     1.111874610377   112.29620550   235.51737281
 H      4   1   2     1.107836007926   109.71900152   351.11959929
 H      4   1   2     1.106106282679   112.37570044   110.91363698

---------------------------
INTERNAL COORDINATES (A.U.)
---------------------------
 C      0   0   0     0.000000000000     0.00000000     0.00000000
 C      1   0   0     2.894622690191     0.00000000     0.00000000
 C      1   2   0     2.862228815276   112.28354042     0.00000000
 C      1   2   3     2.880631340971   113.77090940   228.63440795
 H      2   1   3     2.094910186352   111.76723388   106.38336499
 H      2   1   3     2.101683880837   109.32179585   224.70942859
 H      2   1   3     2.087504712571   110.69933430   346.27175960
 H      3   1   2     2.098356914701   109.07212143    43.45542558
 H      3   1   2     2.096282650863   112.19673841   286.05572810
 H      3   1   2     2.092723003729   113.29299167   160.66023424
 H      4   1   2     2.101138508873   112.29620550   235.51737281
 H      4   1   2     2.093506656277   109.71900152   351.11959929
 H      4   1   2     2.090237949273   112.37570044   110.91363698


Diagonalization of the overlap matrix:
Smallest eigenvalue                        ... 2.486e-03
Time for diagonalization                   ...    0.001 sec
Threshold for overlap eigenvalues          ... 1.000e-08
Number of eigenvalues below threshold      ... 0
Time for construction of square roots      ...    0.264 sec
Total time needed                          ...    0.266 sec

-------------------
DFT GRID GENERATION
-------------------

General Integration Accuracy     IntAcc      ...  4.340
Radial Grid Type                 RadialGrid  ... Gauss-Chebyshev
Angular Grid (max. acc.)         AngularGrid ... Lebedev-110
Angular grid pruning method      GridPruning ... 3 (G Style)
Weight generation scheme         WeightScheme... Becke
Basis function cutoff            BFCut       ...    1.0000e-12
Integration weight cutoff        WCut        ...    1.0000e-14
Grids for H and He will be reduced by one unit

# of grid points (after initial pruning)     ...  13770 (   0.0 sec)
# of grid points (after weights+screening)   ...  12912 (   0.0 sec)
nearest neighbour list constructed           ...    0.0 sec
Grid point re-assignment to atoms done       ...    0.0 sec
Grid point division into batches done        ...    0.0 sec
Reduced shell lists constructed in    0.1 sec

Total number of grid points                  ...    12912
Total number of batches                      ...      210
Average number of points per batch           ...       61
Average number of grid points per atom       ...      993
Average number of shells per batch           ...    37.13 (88.41%)
Average number of basis functions per batch  ...    66.23 (89.50%)
Average number of large shells per batch     ...    32.05 (86.32%)
Average number of large basis fcns per batch ...    56.79 (85.75%)
Maximum spatial batch extension              ...  21.98, 22.44, 20.53 au
Average spatial batch extension              ...   4.25,  4.04,  4.09 au

Time for grid setup =    0.406 sec

--------------
SCF ITERATIONS
--------------
ITER       Energy         Delta-E        Max-DP      RMS-DP      [F,P]     Damp
               ***  Starting incremental Fock matrix formation  ***
  0   -157.5253382247   0.000000000000 0.00242233  0.00015346  0.0148378 0.7000
  1   -157.5260534536  -0.000715228983 0.00187887  0.00014110  0.0112001 0.7000
                               ***Turning on DIIS***
  2   -157.5266097622  -0.000556308516 0.00482188  0.00037390  0.0084092 0.0000
  3   -157.5280138833  -0.001404121139 0.00299973  0.00008306  0.0014188 0.0000
  4   -157.5280355839  -0.000021700628 0.00266053  0.00007418  0.0006728 0.0000
  5   -157.5280402599  -0.000004676020 0.00034700  0.00001333  0.0003108 0.0000
  6   -157.5280407780  -0.000000518052 0.00033298  0.00000772  0.0000989 0.0000
  7   -157.5280408392  -0.000000061239 0.00004114  0.00000145  0.0000224 0.0000
  8   -157.5280408430  -0.000000003738 0.00001323  0.00000054  0.0000132 0.0000
  9   -157.5280408439  -0.000000000956 0.00000969  0.00000025  0.0000035 0.0000
 10   -157.5280408440  -0.000000000115 0.00000093  0.00000005  0.0000005 0.0000
 11   -157.5280408440  -0.000000000008 0.00000032  0.00000002  0.0000001 0.0000
                 **** Energy Check signals convergence ****

 Fermi smearing  (ALPHA): E(HOMO(Eh)) = -0.327475 MUE = -0.067317 gap=   6.868 eV
 Fermi smearing   (BETA): E(HOMO(Eh)) = -0.321840 MUE = -0.181680 gap=   7.578 eV

N_FOD(alpha) =  0.000000
 N_FOD(beta) =  0.000000
       N_FOD =  0.000000

               *****************************************************
               *                     SUCCESS                       *
               *           SCF CONVERGED AFTER  12 CYCLES          *
               *****************************************************

Setting up the final grid:

General Integration Accuracy     IntAcc      ...  4.670
Radial Grid Type                 RadialGrid  ... Gauss-Chebyshev
Angular Grid (max. acc.)         AngularGrid ... Lebedev-302
Angular grid pruning method      GridPruning ... 3 (G Style)
Weight generation scheme         WeightScheme... Becke
Basis function cutoff            BFCut       ...    1.0000e-12
Integration weight cutoff        WCut        ...    1.0000e-14
Grids for H and He will be reduced by one unit

# of grid points (after initial pruning)     ...  55394 (   0.0 sec)
# of grid points (after weights+screening)   ...  51301 (   0.1 sec)
nearest neighbour list constructed           ...    0.0 sec
Grid point re-assignment to atoms done       ...    0.0 sec
Grid point division into batches done        ...    0.2 sec
Reduced shell lists constructed in    0.4 sec

Total number of grid points                  ...    51301
Total number of batches                      ...      808
Average number of points per batch           ...       63
Average number of grid points per atom       ...     3946
Average number of shells per batch           ...    34.73 (82.70%)
Average number of basis functions per batch  ...    61.70 (83.38%)
Average number of large shells per batch     ...    29.33 (84.43%)
Average number of large basis fcns per batch ...    51.60 (83.63%)
Maximum spatial batch extension              ...  20.13, 17.91, 19.77 au
Average spatial batch extension              ...   2.60,  2.62,  2.65 au

Final grid set up in    0.7 sec
Final integration                            ... done (   4.9 sec)
Change in XC energy                          ...     0.000311758
Integrated number of electrons               ...    33.000013206
Previous integrated no of electrons          ...    33.003297572
Total Energy       :         -157.52772909 Eh           -4286.54743 eV
  Last Energy change         ...    1.1653e-12  Tolerance :   1.0000e-09
  Last MAX-Density change    ...    1.5979e-07  Tolerance :   1.0000e-08
             **** THE GBW FILE WAS UPDATED (orca8.gbw) ****
             **** DENSITY FILE WAS UPDATED (orca8.scfp) ****
             **** ENERGY FILE WAS UPDATED (orca8.en.tmp) ****
             **** THE GBW FILE WAS UPDATED (orca8.gbw) ****
             **** DENSITY FILE WAS UPDATED (orca8.scfp) ****
Total SCF time: 0 days 0 hours 1 min 50 sec 


-------------------------------------------------------------------------------
                          DFT DISPERSION CORRECTION                            
                                                                               
                              DFTD3 V3.1  Rev 1                                
                          USING Becke-Johnson damping                          
-------------------------------------------------------------------------------
-------------------------   ----------------
Dispersion correction           -0.014059346
-------------------------   ----------------


-------------------------   --------------------
FINAL SINGLE POINT ENERGY      -157.541788432515
-------------------------   --------------------

------------------------------------------------------------------------------
                         ORCA SCF GRADIENT CALCULATION
------------------------------------------------------------------------------

Gradient of the Kohn-Sham DFT energy:
Kohn-Sham wavefunction type      ... UKS
Hartree-Fock exchange scaling    ...    0.200
Number of operators              ...    2
Number of atoms                  ...   13
Basis set dimensions             ...   74
Integral neglect threshold       ... 1.0e-12
Integral primitive cutoff        ... 1.0e-14

Nuclear repulsion gradient       ... done
One Electron Gradient            ... done
Pre-screening matrix             ... done
Starting the two electron gradient:
Two electron gradient done
Exchange-correlation gradient    ... done
Dispersion correction            ... done

------------------
CARTESIAN GRADIENT
------------------

   1   C   :   -0.006265637    0.005703281    0.044468347
   2   C   :    0.007612740   -0.006105783   -0.013303524
   3   C   :   -0.000037762    0.009003102   -0.023534450
   4   C   :   -0.009793133   -0.003100211   -0.017984443
   5   H   :    0.000487176   -0.000326589   -0.000243914
   6   H   :   -0.003093319    0.004013979    0.003114897
   7   H   :   -0.003601688    0.000368867   -0.004189024
   8   H   :    0.002659941   -0.001263280    0.001724086
   9   H   :    0.001087934   -0.003715969    0.001545245
  10   H   :    0.000604492   -0.003670389    0.005275074
  11   H   :    0.005538852    0.000651794    0.003904470
  12   H   :    0.002011245   -0.000900977    0.001067564
  13   H   :    0.002789157   -0.000657826   -0.001844330

Difference to translation invariance:
           :   -0.0000000000   -0.0000000000   -0.0000000000

Norm of the cartesian gradient     ...    0.0598866511
RMS gradient                       ...    0.0095895389
MAX gradient                       ...    0.0444683473

-------
TIMINGS
-------

Total SCF gradient time            ...        5.007 sec

One electron gradient       ....       0.029 sec  (  0.6%)
Prescreening matrices       ....       0.027 sec  (  0.5%)
Two electron gradient       ....       1.452 sec  ( 29.0%)
XC gradient                 ....       2.632 sec  ( 52.6%)
------------------------------------------------------------------------------
                         ORCA GEOMETRY RELAXATION STEP
------------------------------------------------------------------------------

Reading the OPT-File                    .... done
Getting information on internals        .... done
Copying old internal coords+grads       .... done
Making the new internal coordinates     .... (new redundants).... done
Validating the new internal coordinates .... (new redundants).... done
Calculating the B-matrix                .... done
Calculating the G,G- and P matrices     .... done
Transforming gradient to internals      .... done
Projecting the internal gradient        .... done
Number of atoms                         ....  13
Number of internal coordinates          ....  51
Current Energy                          ....  -157.541788433 Eh
Current gradient norm                   ....     0.059886651 Eh/bohr
Maximum allowed component of the step   ....  0.300
Current trust radius                    ....  0.300
Updating the Hessian (BFGS)             .... done
Forming the augmented Hessian           .... done
Diagonalizing the augmented Hessian     .... done
Last element of RFO vector              ....  0.923757772
Lowest eigenvalues of augmented Hessian:
 -0.010065938  0.011600345  0.012320381  0.012815879  0.052316948
Length of the computed step             ....  0.414586234
Warning: the length of the step is outside the trust region - taking restricted step instead
The input lambda is                     ....    -0.010066
   iter:   1  x=   -0.022156  g=    6.772605 f(x)=     0.081882
   iter:   2  x=   -0.029161  g=    3.406036 f(x)=     0.023860
   iter:   3  x=   -0.030558  g=    2.484580 f(x)=     0.003469
   iter:   4  x=   -0.030600  g=    2.344123 f(x)=     0.000099
   iter:   5  x=   -0.030600  g=    2.340034 f(x)=     0.000000
   iter:   6  x=   -0.030600  g=    2.340031 f(x)=     0.000000
   iter:   7  x=   -0.030600  g=    2.340031 f(x)=    -0.000000
The output lambda is                    ....    -0.030600 (7 iterations)
The final length of the internal step   ....  0.300000000
Converting the step to cartesian space:
 Initial RMS(Int)=    0.0420084025
Transforming coordinates:
 Iter   0:  RMS(Cart)=    0.0513957469 RMS(Int)=    0.0427269890
 Iter   1:  RMS(Cart)=    0.0030655780 RMS(Int)=    0.0017611489
 Iter   2:  RMS(Cart)=    0.0001324887 RMS(Int)=    0.0000759468
 Iter   3:  RMS(Cart)=    0.0000046874 RMS(Int)=    0.0000041348
 Iter   4:  RMS(Cart)=    0.0000002976 RMS(Int)=    0.0000001874
 Iter   5:  RMS(Cart)=    0.0000000156 RMS(Int)=    0.0000000148
done
Storing new coordinates                 .... done

                                .--------------------.
          ----------------------|Geometry convergence|-------------------------
          Item                value                   Tolerance       Converged
          ---------------------------------------------------------------------
          Energy change      -0.0106348599            0.0000050000      NO
          RMS gradient        0.0038212867            0.0001000000      NO
          MAX gradient        0.0093696474            0.0003000000      NO
          RMS step            0.0420084025            0.0020000000      NO
          MAX step            0.1144116189            0.0040000000      NO
          ........................................................
          Max(Bonds)      0.0081      Max(Angles)    3.12
          Max(Dihed)        6.56      Max(Improp)    0.00
          ---------------------------------------------------------------------

The optimization has not yet converged - more geometry cycles are needed


    ---------------------------------------------------------------------------
                         Redundant Internal Coordinates
                            (Angstroem and degrees)

        Definition                    Value    dE/dq     Step     New-Value
    ----------------------------------------------------------------------------
     1. B(C   1,C   0)                1.5318  0.003701 -0.0081    1.5237   
     2. B(C   2,C   0)                1.5146  0.001129 -0.0025    1.5121   
     3. B(C   3,C   0)                1.5244  0.001668 -0.0038    1.5206   
     4. B(H   4,C   1)                1.1086  0.000312 -0.0002    1.1083   
     5. B(H   5,C   1)                1.1122  0.001481 -0.0032    1.1089   
     6. B(H   6,C   1)                1.1047  0.000767 -0.0014    1.1032   
     7. B(H   7,C   2)                1.1104  0.002148 -0.0048    1.1056   
     8. B(H   8,C   2)                1.1093 -0.001350  0.0030    1.1123   
     9. B(H   9,C   2)                1.1074  0.000384 -0.0009    1.1066   
    10. B(H  10,C   3)                1.1119  0.001456 -0.0031    1.1087   
    11. B(H  11,C   3)                1.1078  0.001325 -0.0026    1.1052   
    12. B(H  12,C   3)                1.1061 -0.000140  0.0005    1.1066   
    13. A(C   1,C   0,C   3)          113.77 -0.003153    2.42    116.19   
    14. A(C   2,C   0,C   3)          114.00  0.000827    1.28    115.29   
    15. A(C   1,C   0,C   2)          112.28 -0.005275    3.12    115.41   
    16. A(H   4,C   1,H   5)          107.05  0.002448   -0.60    106.45   
    17. A(H   5,C   1,H   6)          110.19  0.006516   -1.88    108.31   
    18. A(H   4,C   1,H   6)          107.74  0.000096    0.13    107.88   
    19. A(C   0,C   1,H   4)          111.77  0.002367   -0.52    111.25   
    20. A(C   0,C   1,H   5)          109.32 -0.007206    1.82    111.14   
    21. A(C   0,C   1,H   6)          110.70 -0.003732    0.94    111.64   
    22. A(H   7,C   2,H   9)          105.52 -0.000834    1.02    106.55   
    23. A(C   0,C   2,H   9)          113.29  0.000808   -0.44    112.85   
    24. A(H   7,C   2,H   8)          106.22 -0.000786    0.68    106.90   
    25. A(C   0,C   2,H   8)          112.20  0.004192   -1.38    110.82   
    26. A(H   8,C   2,H   9)          110.07  0.002390   -1.58    108.50   
    27. A(C   0,C   2,H   7)          109.07 -0.006396    2.15    111.22   
    28. A(H  11,C   3,H  12)          107.70  0.000043    0.24    107.95   
    29. A(H  10,C   3,H  12)          109.97  0.004071   -1.87    108.10   
    30. A(C   0,C   3,H  12)          112.38  0.002465   -0.92    111.46   
    31. A(H  10,C   3,H  11)          104.38 -0.000966    1.06    105.44   
    32. A(C   0,C   3,H  11)          109.72 -0.004334    1.49    111.21   
    33. A(C   0,C   3,H  10)          112.30 -0.001570    0.27    112.56   
    34. D(H   6,C   1,C   0,C   2)    -13.73 -0.001765    1.52    -12.20   
    35. D(H   4,C   1,C   0,C   2)    106.38 -0.002601    1.99    108.38   
    36. D(H   6,C   1,C   0,C   3)   -145.09  0.004990   -4.57   -149.66   
    37. D(H   5,C   1,C   0,C   2)   -135.29 -0.002746    2.11   -133.18   
    38. D(H   4,C   1,C   0,C   3)    -24.98  0.004153   -4.10    -29.08   
    39. D(H   5,C   1,C   0,C   3)     93.34  0.004009   -3.98     89.36   
    40. D(H   7,C   2,C   0,C   1)     43.46  0.004197   -2.64     40.82   
    41. D(H   9,C   2,C   0,C   3)    -68.09 -0.009370    6.56    -61.54   
    42. D(H   9,C   2,C   0,C   1)    160.66 -0.000584   -0.27    160.39   
    43. D(H   8,C   2,C   0,C   3)     57.30 -0.002050    2.77     60.07   
    44. D(H   8,C   2,C   0,C   1)    -73.94  0.006735   -4.06    -78.00   
    45. D(H   7,C   2,C   0,C   3)    174.70 -0.004589    4.18    178.89   
    46. D(H  11,C   3,C   0,C   1)     -8.88 -0.005453    3.38     -5.50   
    47. D(H  10,C   3,C   0,C   2)    105.00  0.009306   -6.24     98.76   
    48. D(H  10,C   3,C   0,C   1)   -124.48 -0.000613    1.06   -123.43   
    49. D(H  12,C   3,C   0,C   2)    -19.60  0.003175   -3.17    -22.77   
    50. D(H  12,C   3,C   0,C   1)    110.91 -0.006745    4.12    115.03   
    51. D(H  11,C   3,C   0,C   2)   -139.40  0.004467   -3.91   -143.31   
    ----------------------------------------------------------------------------

Time needed for optimization step       :     1.46 sec

         *************************************************************
         *                GEOMETRY OPTIMIZATION CYCLE   3            *
         *************************************************************
---------------------------------
CARTESIAN COORDINATES (ANGSTROEM)
---------------------------------
  C     -0.030253    0.024111    0.256034
  C      1.334131   -0.646833    0.156414
  C     -1.201223   -0.843143   -0.147910
  C     -0.099571    1.459527   -0.240853
  H      1.923385   -0.235501   -0.687379
  H      1.933525   -0.471806    1.072833
[...]

             **** THE GBW FILE WAS UPDATED (orca8.gbw) ****
             **** DENSITY FILE WAS UPDATED (orca8.scfp) ****
             **** ENERGY FILE WAS UPDATED (orca8.en.tmp) ****
             **** THE GBW FILE WAS UPDATED (orca8.gbw) ****
             **** DENSITY FILE WAS UPDATED (orca8.scfp) ****
----------------
ORBITAL ENERGIES
----------------
                 SPIN UP ORBITALS
  NO   OCC          E(Eh)            E(eV) 
   0   1.0000     -10.183127      -277.0970 
   1   1.0000     -10.168844      -276.7083 
   2   1.0000     -10.168815      -276.7075 
   3   1.0000     -10.168638      -276.7027 
   4   1.0000      -0.789106       -21.4727 
   5   1.0000      -0.677094       -18.4247 
   6   1.0000      -0.677000       -18.4221 
   7   1.0000      -0.525983       -14.3127 
   8   1.0000      -0.439554       -11.9609 
   9   1.0000      -0.435091       -11.8394 
  10   1.0000      -0.435045       -11.8382 
  11   1.0000      -0.381278       -10.3751 
  12   1.0000      -0.381172       -10.3722 
  13   1.0000      -0.362596        -9.8667 
  14   1.0000      -0.341993        -9.3061 
  15   1.0000      -0.341871        -9.3028 
  16   1.0000      -0.170565        -4.6413 
  17   0.0000       0.054320         1.4781 
  18   0.0000       0.104667         2.8481 
  19   0.0000       0.105708         2.8765 
  20   0.0000       0.121111         3.2956 
  21   0.0000       0.121426         3.3042 
  22   0.0000       0.132298         3.6000 
  23   0.0000       0.156663         4.2630 
  24   0.0000       0.156848         4.2681 
  25   0.0000       0.191125         5.2008 
  26   0.0000       0.207055         5.6343 
  27   0.0000       0.279051         7.5934 
  28   0.0000       0.280939         7.6447 
  29   0.0000       0.400985        10.9114 
  30   0.0000       0.401680        10.9303 
  31   0.0000       0.439600        11.9621 
  32   0.0000       0.474818        12.9204 
  33   0.0000       0.475015        12.9258 
  34   0.0000       0.476379        12.9629 
  35   0.0000       0.613604        16.6970 
  36   0.0000       0.622536        16.9401 
  37   0.0000       0.623542        16.9674 
  38   0.0000       0.640571        17.4308 
  39   0.0000       0.646745        17.5988 
  40   0.0000       0.664666        18.0865 
  41   0.0000       0.682426        18.5697 
  42   0.0000       0.682543        18.5729 
  43   0.0000       0.706769        19.2322 
  44   0.0000       0.707026        19.2391 
  45   0.0000       0.707333        19.2475 
  46   0.0000       0.732407        19.9298 
  47   0.0000       0.733243        19.9526 
  48   0.0000       0.764233        20.7958 
  49   0.0000       0.787949        21.4412 
  50   0.0000       0.788059        21.4442 
  51   0.0000       0.844851        22.9896 
  52   0.0000       1.014808        27.6143 
  53   0.0000       1.016202        27.6523 
  54   0.0000       1.430397        38.9231 
  55   0.0000       1.430443        38.9243 
  56   0.0000       1.724513        46.9264 
  57   0.0000       1.772842        48.2415 
  58   0.0000       1.773107        48.2487 
  59   0.0000       1.777921        48.3797 
  60   0.0000       1.979575        53.8670 
  61   0.0000       1.980144        53.8825 
  62   0.0000       1.980320        53.8872 
  63   0.0000       2.042617        55.5824 
  64   0.0000       2.043304        55.6011 
  65   0.0000       2.133619        58.0587 
  66   0.0000       2.155895        58.6649 
  67   0.0000       2.176610        59.2286 
  68   0.0000       2.177159        59.2435 
  69   0.0000       2.416986        65.7695 
  70   0.0000       2.417362        65.7798 
  71   0.0000       2.483799        67.5876 
  72   0.0000       2.733243        74.3753 
  73   0.0000       2.733439        74.3807 

                 SPIN DOWN ORBITALS
  NO   OCC          E(Eh)            E(eV) 
   0   1.0000     -10.169841      -276.7355 
   1   1.0000     -10.169815      -276.7347 
   2   1.0000     -10.169638      -276.7299 
   3   1.0000     -10.168844      -276.7083 
   4   1.0000      -0.772124       -21.0106 
   5   1.0000      -0.674725       -18.3602 
   6   1.0000      -0.674636       -18.3578 
   7   1.0000      -0.507953       -13.8221 
   8   1.0000      -0.431068       -11.7299 
   9   1.0000      -0.431013       -11.7284 
  10   1.0000      -0.419702       -11.4207 
  11   1.0000      -0.375292       -10.2122 
  12   1.0000      -0.375204       -10.2098 
  13   1.0000      -0.361487        -9.8366 
  14   1.0000      -0.337167        -9.1748 
  15   1.0000      -0.337050        -9.1716 
  16   0.0000      -0.030325        -0.8252 
  17   0.0000       0.055472         1.5095 
  18   0.0000       0.105631         2.8744 
  19   0.0000       0.106717         2.9039 
  20   0.0000       0.122603         3.3362 
  21   0.0000       0.122891         3.3440 
  22   0.0000       0.140943         3.8353 
  23   0.0000       0.159774         4.3477 
  24   0.0000       0.159979         4.3532 
  25   0.0000       0.191270         5.2047 
  26   0.0000       0.225168         6.1271 
  27   0.0000       0.285291         7.7632 
  28   0.0000       0.287214         7.8155 
  29   0.0000       0.402982        10.9657 
  30   0.0000       0.403646        10.9838 
  31   0.0000       0.461525        12.5587 
  32   0.0000       0.481668        13.1069 
  33   0.0000       0.481821        13.1110 
  34   0.0000       0.493238        13.4217 
  35   0.0000       0.624049        16.9812 
  36   0.0000       0.625021        17.0077 
  37   0.0000       0.648181        17.6379 
  38   0.0000       0.648838        17.6558 
  39   0.0000       0.659367        17.9423 
  40   0.0000       0.673407        18.3243 
  41   0.0000       0.687305        18.7025 
  42   0.0000       0.687517        18.7083 
  43   0.0000       0.709080        19.2951 
  44   0.0000       0.709274        19.3003 
  45   0.0000       0.717145        19.5145 
  46   0.0000       0.735781        20.0216 
  47   0.0000       0.736639        20.0450 
  48   0.0000       0.763917        20.7872 
  49   0.0000       0.792131        21.5550 
  50   0.0000       0.792306        21.5597 
  51   0.0000       0.854058        23.2401 
  52   0.0000       1.017778        27.6952 
  53   0.0000       1.019200        27.7338 
  54   0.0000       1.452625        39.5279 
  55   0.0000       1.452679        39.5294 
  56   0.0000       1.722156        46.8622 
  57   0.0000       1.776420        48.3388 
  58   0.0000       1.776622        48.3443 
  59   0.0000       1.806674        49.1621 
  60   0.0000       1.984046        53.9886 
  61   0.0000       1.984268        53.9947 
  62   0.0000       2.004223        54.5377 
  63   0.0000       2.051600        55.8269 
  64   0.0000       2.052255        55.8447 
  65   0.0000       2.135791        58.1178 
  66   0.0000       2.155023        58.6412 
  67   0.0000       2.180404        59.3318 
  68   0.0000       2.180973        59.3473 
  69   0.0000       2.439500        66.3822 
  70   0.0000       2.439804        66.3905 
  71   0.0000       2.511881        68.3518 
  72   0.0000       2.740768        74.5801 
  73   0.0000       2.740968        74.5855 

                    ********************************
                    * MULLIKEN POPULATION ANALYSIS *
                    ********************************

------------------------------------------
FOD BASED MULLIKEN REDUCED ORBITAL CHARGES
------------------------------------------
  0 C s       :     0.000000  s :     0.000000
      pz      :     0.000000  p :     0.000000
      px      :     0.000000
      py      :     0.000000
      dz2     :     0.000000  d :     0.000000
      dxz     :     0.000000
      dyz     :     0.000000
      dx2y2   :     0.000000
      dxy     :     0.000000
  1 C s       :    -0.000000  s :    -0.000000
      pz      :     0.000000  p :     0.000000
      px      :     0.000000
      py      :     0.000000
      dz2     :     0.000000  d :     0.000000
      dxz     :     0.000000
      dyz     :     0.000000
      dx2y2   :     0.000000
      dxy     :     0.000000
  2 C s       :    -0.000000  s :    -0.000000
      pz      :     0.000000  p :     0.000000
      px      :     0.000000
      py      :     0.000000
      dz2     :     0.000000  d :     0.000000
      dxz     :     0.000000
      dyz     :     0.000000
      dx2y2   :     0.000000
      dxy     :     0.000000
  3 C s       :    -0.000000  s :    -0.000000
      pz      :     0.000000  p :     0.000000
      px      :     0.000000
      py      :     0.000000
      dz2     :     0.000000  d :     0.000000
      dxz     :     0.000000
      dyz     :     0.000000
      dx2y2   :     0.000000
      dxy     :     0.000000
  4 H s       :     0.000000  s :     0.000000
  5 H s       :     0.000000  s :     0.000000
  6 H s       :     0.000000  s :     0.000000
  7 H s       :     0.000000  s :     0.000000
  8 H s       :     0.000000  s :     0.000000
  9 H s       :     0.000000  s :     0.000000
 10 H s       :     0.000000  s :     0.000000
 11 H s       :     0.000000  s :     0.000000
 12 H s       :     0.000000  s :     0.000000


                     *******************************
                     * LOEWDIN POPULATION ANALYSIS *
                     *******************************

-------------------------------------------
LOEWDIN ATOMIC CHARGES AND SPIN POPULATIONS
-------------------------------------------
   0 C :   -0.080669    0.820383
   1 C :   -0.312807   -0.023175
   2 C :   -0.312124   -0.023172
   3 C :   -0.311847   -0.023093
   4 H :    0.112451    0.058651
   5 H :    0.113710    0.012106
   6 H :    0.113424    0.012281
   7 H :    0.113478    0.012330
   8 H :    0.112251    0.058564
   9 H :    0.113257    0.012045
  10 H :    0.113355    0.012304
  11 H :    0.113584    0.012059
  12 H :    0.111936    0.058718

----------------------------------------------------
LOEWDIN REDUCED ORBITAL CHARGES AND SPIN POPULATIONS
----------------------------------------------------
CHARGE
  0 C s       :     2.904588  s :     2.904588
      pz      :     0.988970  p :     3.083678
      px      :     1.047023
      py      :     1.047685
      dz2     :     0.008003  d :     0.092403
      dxz     :     0.009284
      dyz     :     0.009852
      dx2y2   :     0.032564
      dxy     :     0.032700
  1 C s       :     2.946959  s :     2.946959
      pz      :     1.106053  p :     3.287847
      px      :     1.079983
      py      :     1.101811
      dz2     :     0.015811  d :     0.078002
      dxz     :     0.017024
      dyz     :     0.011936
      dx2y2   :     0.016628
      dxy     :     0.016603
  2 C s       :     2.946931  s :     2.946931
      pz      :     1.105188  p :     3.287174
      px      :     1.084742
      py      :     1.097243
      dz2     :     0.019379  d :     0.078019
      dxz     :     0.011999
      dyz     :     0.012673
      dx2y2   :     0.017215
      dxy     :     0.016753
  3 C s       :     2.947035  s :     2.947035
      pz      :     1.105309  p :     3.286746
      px      :     1.107977
      py      :     1.073459
      dz2     :     0.018821  d :     0.078066
      dxz     :     0.008786
      dyz     :     0.016569
      dx2y2   :     0.016376
      dxy     :     0.017514
  4 H s       :     0.887549  s :     0.887549
  5 H s       :     0.886290  s :     0.886290
  6 H s       :     0.886576  s :     0.886576
  7 H s       :     0.886522  s :     0.886522
  8 H s       :     0.887749  s :     0.887749
  9 H s       :     0.886743  s :     0.886743
 10 H s       :     0.886645  s :     0.886645
 11 H s       :     0.886416  s :     0.886416
 12 H s       :     0.888064  s :     0.888064

SPIN
  0 C s       :     0.041815  s :     0.041815
      pz      :     0.745888  p :     0.781641
      px      :     0.019014
      py      :     0.016738
      dz2     :    -0.001251  d :    -0.003072
      dxz     :    -0.000140
      dyz     :    -0.000177
      dx2y2   :    -0.000746
      dxy     :    -0.000757
  1 C s       :    -0.005754  s :    -0.005754
      pz      :    -0.013859  p :    -0.034272
      px      :    -0.014274
      py      :    -0.006139
      dz2     :     0.002295  d :     0.016851
      dxz     :     0.010711
      dyz     :     0.002530
      dx2y2   :     0.000588
      dxy     :     0.000727
  2 C s       :    -0.005751  s :    -0.005751
      pz      :    -0.014187  p :    -0.034261
      px      :    -0.012290
      py      :    -0.007784
      dz2     :     0.004247  d :     0.016839
      dxz     :     0.007237
      dyz     :     0.004262
      dx2y2   :     0.000359
      dxy     :     0.000733
  3 C s       :    -0.005736  s :    -0.005736
      pz      :    -0.014141  p :    -0.034240
      px      :    -0.003726
      py      :    -0.016374
      dz2     :     0.003917  d :     0.016883
      dxz     :     0.000098
      dyz     :     0.011741
      dx2y2   :     0.000797
      dxy     :     0.000330
  4 H s       :     0.058651  s :     0.058651
  5 H s       :     0.012106  s :     0.012106
  6 H s       :     0.012281  s :     0.012281
  7 H s       :     0.012330  s :     0.012330
  8 H s       :     0.058564  s :     0.058564
  9 H s       :     0.012045  s :     0.012045
 10 H s       :     0.012304  s :     0.012304
 11 H s       :     0.012059  s :     0.012059
 12 H s       :     0.058718  s :     0.058718


                      *****************************
                      * MAYER POPULATION ANALYSIS *
                      *****************************

  NA   - Mulliken gross atomic population
  ZA   - Total nuclear charge
  QA   - Mulliken gross atomic charge
  VA   - Mayer's total valence
  BVA  - Mayer's bonded valence
  FA   - Mayer's free valence

  ATOM       NA         ZA         QA         VA         BVA        FA
  0 C      6.1582     6.0000    -0.1582     4.2111     3.5199     0.6912
  1 C      6.2201     6.0000    -0.2201     3.9400     3.9365     0.0035
  2 C      6.2169     6.0000    -0.2169     3.9395     3.9361     0.0035
  3 C      6.2171     6.0000    -0.2171     3.9385     3.9350     0.0035
  4 H      0.9089     1.0000     0.0911     0.9487     0.9437     0.0050
  5 H      0.9084     1.0000     0.0916     0.9591     0.9589     0.0002
  6 H      0.9107     1.0000     0.0893     0.9594     0.9592     0.0002
  7 H      0.9107     1.0000     0.0893     0.9594     0.9592     0.0002
  8 H      0.9094     1.0000     0.0906     0.9489     0.9438     0.0050
  9 H      0.9105     1.0000     0.0895     0.9594     0.9592     0.0002
 10 H      0.9100     1.0000     0.0900     0.9589     0.9587     0.0002
 11 H      0.9089     1.0000     0.0911     0.9590     0.9588     0.0002
 12 H      0.9102     1.0000     0.0898     0.9489     0.9439     0.0050

  Mayer bond orders larger than 0.100000
B(  0-C ,  1-C ) :   1.1253 B(  0-C ,  2-C ) :   1.1233 B(  0-C ,  3-C ) :   1.1200 
B(  1-C ,  4-H ) :   0.9294 B(  1-C ,  5-H ) :   0.9501 B(  1-C ,  6-H ) :   0.9495 
B(  2-C ,  7-H ) :   0.9497 B(  2-C ,  8-H ) :   0.9299 B(  2-C ,  9-H ) :   0.9509 
B(  3-C , 10-H ) :   0.9509 B(  3-C , 11-H ) :   0.9509 B(  3-C , 12-H ) :   0.9301 


-------
TIMINGS
-------

Total SCF time: 0 days 0 hours 2 min 22 sec 

Total time                  ....     142.247 sec
Sum of individual times     ....     111.681 sec  ( 78.5%)

Fock matrix formation       ....      90.723 sec  ( 63.8%)
  XC integration            ....      41.236 sec  ( 45.5% of F)
    Basis function eval.    ....       0.399 sec  (  1.0% of XC)
    Density eval.           ....       0.297 sec  (  0.7% of XC)
    XC-Functional eval.     ....       0.174 sec  (  0.4% of XC)
    XC-Potential eval.      ....       0.420 sec  (  1.0% of XC)
Diagonalization             ....       0.028 sec  (  0.0%)
Density matrix formation    ....       8.392 sec  (  5.9%)
Population analysis         ....       4.957 sec  (  3.5%)
Initial guess               ....       0.003 sec  (  0.0%)
Orbital Transformation      ....       0.000 sec  (  0.0%)
Orbital Orthonormalization  ....       0.001 sec  (  0.0%)
DIIS solution               ....       5.102 sec  (  3.6%)
Grid generation             ....       2.476 sec  (  1.7%)


-------------------------------------------------------------------------------
                          DFT DISPERSION CORRECTION                            
                                                                               
                              DFTD3 V3.1  Rev 1                                
                          USING Becke-Johnson damping                          
-------------------------------------------------------------------------------
The B3LYP functional is recognized
Active option DFTDOPT                   ...         4   

molecular C6(AA) [au] = 1133.308279 


            DFT-D V3
 parameters
 s6 scaling factor         :     1.0000 
 a1 scaling factor         :     0.3981 
 s8 scaling factor         :     1.9889 
 a2 scaling factor         :     4.4211 
 ad hoc parameters k1-k3   :    16.0000     1.3333    -4.0000 

 Edisp/kcal,au: -8.703741940308  -0.013870294189 
 E6   /kcal   :  -4.310071797 
 E8   /kcal   :  -4.393670143 
 % E8         :  50.480243704 

-------------------------   ----------------
Dispersion correction           -0.013870294
-------------------------   ----------------


-------------------------   --------------------
FINAL SINGLE POINT ENERGY      -157.556982252634
-------------------------   --------------------

                                *** OPTIMIZATION RUN DONE ***

                            ***************************************
                            *     ORCA property calculations      *
                            ***************************************

                                    ---------------------
                                    Active property flags
                                    ---------------------
   (+) Dipole Moment


------------------------------------------------------------------------------
                       ORCA ELECTRIC PROPERTIES CALCULATION
------------------------------------------------------------------------------

Dipole Moment Calculation                       ... on
Quadrupole Moment Calculation                   ... off
Polarizability Calculation                      ... off
GBWName                                         ... orca8.gbw
Electron density file                           ... orca8.scfp
The origin for moment calculation is the CENTER OF MASS  = ( 0.030933, -0.021668 -0.116595)

-------------
DIPOLE MOMENT
-------------
                                X             Y             Z
Electronic contribution:     -0.03263       0.01246       0.59997
Nuclear contribution   :      0.03719      -0.01473      -0.68946
                        -----------------------------------------
Total Dipole Moment    :      0.00456      -0.00227      -0.08949
                        -----------------------------------------
Magnitude (a.u.)       :      0.08964
Magnitude (Debye)      :      0.22784



--------------------
Rotational spectrum 
--------------------
 
Rotational constants in cm-1:     0.264880     0.264743     0.143753 
Rotational constants in MHz :  7940.889913  7936.792568  4309.594177 

 Dipole components along the rotational axes: 
x,y,z [a.u.] :     0.000352    -0.000827    -0.089632 
x,y,z [Debye]:     0.000895    -0.002102    -0.227826 

 

Timings for individual modules:

Sum of individual times         ...     5924.281 sec (=  98.738 min)
GTO integral calculation        ...      155.439 sec (=   2.591 min)   2.6 %
SCF iterations                  ...     5586.629 sec (=  93.110 min)  94.3 %
SCF Gradient evaluation         ...      108.810 sec (=   1.813 min)   1.8 %
Geometry relaxation             ...       73.404 sec (=   1.223 min)   1.2 %
                             ****ORCA TERMINATED NORMALLY****
TOTAL RUN TIME: 0 days 1 hours 42 minutes 33 seconds 643 msec
