
                                 *****************
                                 * O   R   C   A *
                                 *****************

           --- An Ab Initio, DFT and Semiempirical electronic structure package ---

                  #######################################################
                  #                        -***-                        #
                  #          Department of theory and spectroscopy      #
                  #               Directorship: Frank Neese             #
                  #        Max Planck Institute fuer Kohlenforschung    #
                  #                Kaiser Wilhelm Platz 1               #
                  #                 D-45470 Muelheim/Ruhr               #
                  #                      Germany                        #
                  #                                                     #
                  #                  All rights reserved                #
                  #                        -***-                        #
                  #######################################################


                         Program Version 4.2.1 -  RELEASE  -


 With contributions from (in alphabetic order):
   Daniel Aravena         : Magnetic Suceptibility
   Michael Atanasov       : Ab Initio Ligand Field Theory (pilot matlab implementation)
   Alexander A. Auer      : GIAO ZORA, VPT2
   Ute Becker             : Parallelization
   Giovanni Bistoni       : ED, misc. LED, open-shell LED, HFLD
   Martin Brehm           : Molecular dynamics
   Dmytro Bykov           : SCF Hessian
   Vijay G. Chilkuri      : MRCI spin determinant printing, contributions to CSF-ICE
   Dipayan Datta          : RHF DLPNO-CCSD density
   Achintya Kumar Dutta   : EOM-CC, STEOM-CC
   Dmitry Ganyushin       : Spin-Orbit,Spin-Spin,Magnetic field MRCI
   Miquel Garcia          : C-PCM Hessian, Gaussian charge scheme
   Yang Guo               : DLPNO-NEVPT2, CIM, IAO-localization
   Andreas Hansen         : Spin unrestricted coupled pair/coupled cluster methods
   Benjamin Helmich-Paris : CASSCF linear response (MC-RPA)
   Lee Huntington         : MR-EOM, pCC
   Robert Izsak           : Overlap fitted RIJCOSX, COSX-SCS-MP3, EOM
   Christian Kollmar      : KDIIS, OOCD, Brueckner-CCSD(T), CCSD density
   Simone Kossmann        : Meta GGA functionals, TD-DFT gradient, OOMP2, MP2 Hessian
   Martin Krupicka        : AUTO-CI
   Lucas Lang             : DCDCAS
   Dagmar Lenk            : GEPOL surface, SMD
   Dimitrios Liakos       : Extrapolation schemes; Compound Job, initial MDCI parallelization
   Dimitrios Manganas     : Further ROCIS development; embedding schemes
   Dimitrios Pantazis     : SARC Basis sets
   Taras Petrenko         : DFT Hessian,TD-DFT gradient, ASA, ECA, R-Raman, ABS, FL, XAS/XES, NRVS
   Peter Pinski           : DLPNO-MP2, DLPNO-MP2 Gradient
   Christoph Reimann      : Effective Core Potentials
   Marius Retegan         : Local ZFS, SOC
   Christoph Riplinger    : Optimizer, TS searches, QM/MM, DLPNO-CCSD(T), (RO)-DLPNO pert. Triples
   Tobias Risthaus        : Range-separated hybrids, TD-DFT gradient, RPA, STAB
   Michael Roemelt        : Original ROCIS implementation
   Masaaki Saitow         : Open-shell DLPNO-CCSD energy and density
   Barbara Sandhoefer     : DKH picture change effects
   Avijit Sen             : IP-ROCIS
   Kantharuban Sivalingam : CASSCF convergence, NEVPT2, FIC-MRCI
   Bernardo de Souza      : ESD, SOC TD-DFT
   Georgi Stoychev        : AutoAux, RI-MP2 NMR
   Willem Van den Heuvel  : Paramagnetic NMR
   Boris Wezisla          : Elementary symmetry handling
   Frank Wennmohs         : Technical directorship


 We gratefully acknowledge several colleagues who have allowed us to
 interface, adapt or use parts of their codes:
   Stefan Grimme, W. Hujo, H. Kruse,             : VdW corrections, initial TS optimization,
                  C. Bannwarth                     DFT functionals, gCP, sTDA/sTD-DF
   Ed Valeev, F. Pavosevic, A. Kumar             : LibInt (2-el integral package), F12 methods
   Garnet Chan, S. Sharma, J. Yang, R. Olivares  : DMRG
   Ulf Ekstrom                                   : XCFun DFT Library
   Mihaly Kallay                                 : mrcc  (arbitrary order and MRCC methods)
   Andreas Klamt, Michael Diedenhofen            : otool_cosmo (COSMO solvation model)
   Jiri Pittner, Ondrej Demel                    : Mk-CCSD
   Frank Weinhold                                : gennbo (NPA and NBO analysis)
   Christopher J. Cramer and Donald G. Truhlar   : smd solvation model
   Lars Goerigk                                  : TD-DFT with DH, B97 family of functionals
   V. Asgeirsson, H. Jonsson                     : NEB implementation
   FAccTs GmbH                                   : IRC, NEB, NEB-TS, Multilevel, MM, QM/MM, CI optimization
   S Lehtola, MJT Oliveira, MAL Marques          : LibXC Library


 Your calculation uses the libint2 library for the computation of 2-el integrals
 For citations please refer to: http://libint.valeyev.net

 Your ORCA version has been built with support for libXC version: 4.2.3
 For citations please refer to: https://tddft.org/programs/libxc/

 This ORCA versions uses:
   CBLAS   interface :  Fast vector & matrix operations
   LAPACKE interface :  Fast linear algebra routines
   SCALAPACK package :  Parallel linear algebra routines


Your calculation utilizes the atom-pairwise dispersion correction
with the Becke-Johnson damping scheme (D3BJ)
Cite in your paper:
S.Grimme, S.Ehrlich, L.Goerigk, J Comput Chem, (2011), 32, 1456–1465 
S.Grimme, J.Antony, S.Ehrlich and H.Krieg, J.Chem.Phys., 132, (2010), 154104 
   

----- Orbital basis set information -----
Your calculation utilizes the basis: def2-SV(P)
   F. Weigend and R. Ahlrichs, Phys. Chem. Chem. Phys. 7, 3297 (2005).

----- AuxJ basis set information -----
Your calculation utilizes the auxiliary basis: def2/J
   F. Weigend, Phys. Chem. Chem. Phys. 8, 1057 (2006).

================================================================================
                                        WARNINGS
                       Please study these warnings very carefully!
================================================================================


WARNING: Geometry Optimization
  ===> : Switching off AutoStart
         For restart on a previous wavefunction, please use MOREAD

INFO   : the flag for use of LIBINT has been found!

================================================================================
                                       INPUT FILE
================================================================================
NAME = orca3.inp
|  1> ! UKS B3LYP def2-SV(P) def2/J D3BJ Opt
|  2> %scf Convergence VeryTight
|  3> SmearTemp 2000
|  4> maxiter 500
|  5> end
|  6> *xyz 0 2
|  7> C -0.044128 0.02008 -0.380368
|  8> C -1.443047 -0.029511 0.172956
|  9> C 0.738679 -1.246519 -0.124827
| 10> C 0.718642 1.242971 0.033497
| 11> H -2.011716 -0.774524 -0.434053
| 12> H -1.507341 -0.345976 1.219528
| 13> H -1.8965 0.952185 -0.017688
| 14> H 1.598711 -1.290119 -0.840584
| 15> H 0.1194 -2.127687 -0.36519
| 16> H 1.123733 -1.250622 0.905975
| 17> H 0.002011 2.009751 0.420483
| 18> H 1.23108 1.718745 -0.839732
| 19> H 1.534468 1.034087 0.768642
| 20> *
| 21> 
| 22>                          ****END OF INPUT****
================================================================================

                       *****************************
                       * Geometry Optimization Run *
                       *****************************

Geometry optimization settings:
Update method            Update   .... BFGS
Choice of coordinates    CoordSys .... Z-matrix Internals
Initial Hessian          InHess   .... Almoef's Model

Convergence Tolerances:
Energy Change            TolE     ....  5.0000e-06 Eh
Max. Gradient            TolMAXG  ....  3.0000e-04 Eh/bohr
RMS Gradient             TolRMSG  ....  1.0000e-04 Eh/bohr
Max. Displacement        TolMAXD  ....  4.0000e-03 bohr
RMS Displacement         TolRMSD  ....  2.0000e-03 bohr
Strict Convergence                ....  False
------------------------------------------------------------------------------
                        ORCA OPTIMIZATION COORDINATE SETUP
------------------------------------------------------------------------------

The optimization will be done in new redundant internal coordinates
Making redundant internal coordinates   ...  (new redundants) done
Evaluating the initial hessian          ...  (Almloef) done
Evaluating the coordinates              ...  done
Calculating the B-matrix                .... done
Calculating the G-matrix                .... done
Diagonalizing the G-matrix              .... done
The first mode is                       ....   18
The number of degrees of freedom        ....   33

    -----------------------------------------------------------------
                    Redundant Internal Coordinates


    -----------------------------------------------------------------
         Definition                    Initial Value    Approx d2E/dq
    -----------------------------------------------------------------
      1. B(C   1,C   0)                  1.5052         0.409221   
      2. B(C   2,C   0)                  1.5107         0.400952   
      3. B(C   3,C   0)                  1.4995         0.417834   
      4. B(H   4,C   1)                  1.1166         0.326526   
      5. B(H   5,C   1)                  1.0953         0.353207   
      6. B(H   6,C   1)                  1.0980         0.349620   
      7. B(H   7,C   2)                  1.1198         0.322806   
      8. B(H   8,C   2)                  1.1035         0.342662   
      9. B(H   9,C   2)                  1.1004         0.346627   
     10. B(H  10,C   3)                  1.1186         0.324184   
     11. B(H  11,C   3)                  1.1187         0.324070   
     12. B(H  12,C   3)                  1.1179         0.325051   
     13. A(C   1,C   0,C   3)          113.4638         0.376258   
     14. A(C   2,C   0,C   3)          111.9296         0.374934   
     15. A(C   1,C   0,C   2)          113.0648         0.373589   
     16. A(H   4,C   1,H   5)          107.2633         0.285556   
     17. A(H   5,C   1,H   6)          113.5774         0.288619   
     18. A(H   4,C   1,H   6)          106.9661         0.285102   
     19. A(C   0,C   1,H   4)          107.1851         0.323960   
     20. A(C   0,C   1,H   5)          114.5411         0.328175   
     21. A(C   0,C   1,H   6)          106.8896         0.327623   
     22. A(H   7,C   2,H   9)          109.2615         0.284214   
     23. A(C   0,C   2,H   9)          110.0535         0.326061   
     24. A(H   7,C   2,H   8)          105.1116         0.283706   
     25. A(C   0,C   2,H   8)          109.9889         0.325445   
     26. A(H   8,C   2,H   9)          113.4184         0.286869   
     27. A(C   0,C   2,H   7)          108.8139         0.322272   
     28. A(H  11,C   3,H  12)          104.9811         0.281565   
     29. A(H  10,C   3,H  12)          111.6000         0.281580   
     30. A(C   0,C   3,H  12)          113.6000         0.324829   
     31. A(H  10,C   3,H  11)          105.7818         0.281449   
     32. A(C   0,C   3,H  11)          111.3710         0.324668   
     33. A(C   0,C   3,H  10)          109.1853         0.324686   
     34. D(H   6,C   1,C   0,C   2)    176.8992         0.012405   
     35. D(H   4,C   1,C   0,C   2)    -68.7003         0.012405   
     36. D(H   6,C   1,C   0,C   3)     48.0457         0.012405   
     37. D(H   5,C   1,C   0,C   2)     50.1608         0.012405   
     38. D(H   4,C   1,C   0,C   3)    162.4461         0.012405   
     39. D(H   5,C   1,C   0,C   3)    -78.6927         0.012405   
     40. D(H   7,C   2,C   0,C   1)    160.5440         0.011928   
     41. D(H   9,C   2,C   0,C   3)     49.8764         0.011928   
     42. D(H   9,C   2,C   0,C   1)    -79.7627         0.011928   
     43. D(H   8,C   2,C   0,C   3)    175.5378         0.011928   
     44. D(H   8,C   2,C   0,C   1)     45.8987         0.011928   
     45. D(H   7,C   2,C   0,C   3)    -69.8169         0.011928   
     46. D(H  11,C   3,C   0,C   1)   -132.9085         0.012914   
     47. D(H  10,C   3,C   0,C   2)   -145.8916         0.012914   
     48. D(H  10,C   3,C   0,C   1)    -16.4604         0.012914   
     49. D(H  12,C   3,C   0,C   2)    -20.6264         0.012914   
     50. D(H  12,C   3,C   0,C   1)    108.8048         0.012914   
     51. D(H  11,C   3,C   0,C   2)     97.6603         0.012914   
    -----------------------------------------------------------------

Number of atoms                         .... 13
Number of degrees of freedom            .... 51

         *************************************************************
         *                GEOMETRY OPTIMIZATION CYCLE   1            *
         *************************************************************
---------------------------------
CARTESIAN COORDINATES (ANGSTROEM)
---------------------------------
  C     -0.044128    0.020080   -0.380368
  C     -1.443047   -0.029511    0.172956
  C      0.738679   -1.246519   -0.124827
  C      0.718642    1.242971    0.033497
  H     -2.011716   -0.774524   -0.434053
  H     -1.507341   -0.345976    1.219528
  H     -1.896500    0.952185   -0.017688
  H      1.598711   -1.290119   -0.840584
  H      0.119400   -2.127687   -0.365190
  H      1.123733   -1.250622    0.905975
  H      0.002011    2.009751    0.420483
  H      1.231080    1.718745   -0.839732
  H      1.534468    1.034087    0.768642

----------------------------
CARTESIAN COORDINATES (A.U.)
----------------------------
  NO LB      ZA    FRAG     MASS         X           Y           Z
   0 C     6.0000    0    12.011   -0.083390    0.037946   -0.718791
   1 C     6.0000    0    12.011   -2.726964   -0.055768    0.326839
   2 C     6.0000    0    12.011    1.395901   -2.355580   -0.235889
   3 C     6.0000    0    12.011    1.358037    2.348875    0.063300
   4 H     1.0000    0     1.008   -3.801592   -1.463638   -0.820241
   5 H     1.0000    0     1.008   -2.848462   -0.653800    2.304574
   6 H     1.0000    0     1.008   -3.583866    1.799369   -0.033425
   7 H     1.0000    0     1.008    3.021126   -2.437972   -1.588474
   8 H     1.0000    0     1.008    0.225633   -4.020746   -0.690109
   9 H     1.0000    0     1.008    2.123548   -2.363333    1.712045
  10 H     1.0000    0     1.008    0.003800    3.797879    0.794598
  11 H     1.0000    0     1.008    2.326404    3.247957   -1.586864
  12 H     1.0000    0     1.008    2.899724    1.954141    1.452523

--------------------------------
INTERNAL COORDINATES (ANGSTROEM)
--------------------------------
 C      0   0   0     0.000000000000     0.00000000     0.00000000
 C      1   0   0     1.505191378137     0.00000000     0.00000000
 C      1   2   0     1.510748499497   113.06476644     0.00000000
 C      1   2   3     1.499521493346   113.46382882   231.14643803
 H      2   1   3     1.116641718642   107.18505032   291.29970490
 H      2   1   3     1.095261049177   114.54107914    50.16081238
 H      2   1   3     1.098039978489   106.88955778   176.89922066
 H      3   1   2     1.119760726259   108.81388654   160.54398084
 H      3   1   2     1.103511620163   109.98889786    45.89867422
 H      3   1   2     1.100380016507   110.05350641   280.23727375
 H      4   1   2     1.118601681903   109.18529920   343.53957464
 H      4   1   2     1.118696781689   111.37097629   227.09146971
 H      4   1   2     1.117874214193   113.60001419   108.80481635

---------------------------
INTERNAL COORDINATES (A.U.)
---------------------------
 C      0   0   0     0.000000000000     0.00000000     0.00000000
 C      1   0   0     2.844399483818     0.00000000     0.00000000
 C      1   2   0     2.854900921281   113.06476644     0.00000000
 C      1   2   3     2.833684954352   113.46382882   231.14643803
 H      2   1   3     2.110147037944   107.18505032   291.29970490
 H      2   1   3     2.069743428096   114.54107914    50.16081238
 H      2   1   3     2.074994843442   106.88955778   176.89922066
 H      3   1   2     2.116041108151   108.81388654   160.54398084
 H      3   1   2     2.085334747707   109.98889786    45.89867422
 H      3   1   2     2.079416874439   110.05350641   280.23727375
 H      4   1   2     2.113850831741   109.18529920   343.53957464
 H      4   1   2     2.114030544291   111.37097629   227.09146971
 H      4   1   2     2.112476116997   113.60001419   108.80481635

---------------------
BASIS SET INFORMATION
---------------------
There are 2 groups of distinct atoms

 Group   1 Type C   : 7s4p1d contracted to 3s2p1d pattern {511/31/1}
 Group   2 Type H   : 4s contracted to 2s pattern {31}

Atom   0C    basis set group =>   1
Atom   1C    basis set group =>   1
Atom   2C    basis set group =>   1
Atom   3C    basis set group =>   1
Atom   4H    basis set group =>   2
Atom   5H    basis set group =>   2
Atom   6H    basis set group =>   2
Atom   7H    basis set group =>   2
Atom   8H    basis set group =>   2
Atom   9H    basis set group =>   2
Atom  10H    basis set group =>   2
Atom  11H    basis set group =>   2
Atom  12H    basis set group =>   2
---------------------------------
AUXILIARY/J BASIS SET INFORMATION
---------------------------------
There are 2 groups of distinct atoms

 Group   1 Type C   : 12s5p4d2f1g contracted to 6s4p3d1f1g pattern {711111/2111/211/2/1}
 Group   2 Type H   : 5s2p1d contracted to 3s1p1d pattern {311/2/1}

Atom   0C    basis set group =>   1
Atom   1C    basis set group =>   1
Atom   2C    basis set group =>   1
Atom   3C    basis set group =>   1
Atom   4H    basis set group =>   2
Atom   5H    basis set group =>   2
Atom   6H    basis set group =>   2
Atom   7H    basis set group =>   2
Atom   8H    basis set group =>   2
Atom   9H    basis set group =>   2
Atom  10H    basis set group =>   2
Atom  11H    basis set group =>   2
Atom  12H    basis set group =>   2
------------------------------------------------------------------------------
                           ORCA GTO INTEGRAL CALCULATION
------------------------------------------------------------------------------

                         BASIS SET STATISTICS AND STARTUP INFO

 # of primitive gaussian shells          ...   84
 # of primitive gaussian functions       ...  132
 # of contracted shells                  ...   42
 # of contracted basis functions         ...   74
 Highest angular momentum                ...    2
 Maximum contraction depth               ...    5
 Integral package used                   ... LIBINT
 Integral threshhold            Thresh   ...  1.000e-12
 Primitive cut-off              TCut     ...  1.000e-14


------------------------------ INTEGRAL EVALUATION ----------------------------


 * One electron integrals 
 Pre-screening matrix                    ... done
 Shell pair data                         ... done (   0.000 sec)

-------------------------------------------------------------------------------
                                 ORCA SCF
-------------------------------------------------------------------------------

------------
SCF SETTINGS
------------
Hamiltonian:
 Density Functional     Method          .... DFT(GTOs)
 Exchange Functional    Exchange        .... B88
   X-Alpha parameter    XAlpha          ....  0.666667
   Becke's b parameter  XBeta           ....  0.004200
 Correlation Functional Correlation     .... LYP
 LDA part of GGA corr.  LDAOpt          .... VWN-5
 Gradients option       PostSCFGGA      .... off
 Hybrid DFT is turned on
   Fraction HF Exchange ScalHFX         ....  0.200000
   Scaling of DF-GGA-X  ScalDFX         ....  0.720000
   Scaling of DF-GGA-C  ScalDFC         ....  0.810000
   Scaling of DF-LDA-C  ScalLDAC        ....  1.000000
   Perturbative correction              ....  0.000000
   Density functional embedding theory  .... OFF
   NL short-range parameter             ....  4.800000


General Settings:
 Integral files         IntName         .... orca3
 Hartree-Fock type      HFTyp           .... UHF
 Total Charge           Charge          ....    0
 Multiplicity           Mult            ....    2
 Number of Electrons    NEL             ....   33
 Basis Dimension        Dim             ....   74
 Nuclear Repulsion      ENuc            ....    125.9175106053 Eh

Convergence Acceleration:
 DIIS                   CNVDIIS         .... on
   Start iteration      DIISMaxIt       ....    12
   Startup error        DIISStart       ....  0.200000
   # of expansion vecs  DIISMaxEq       ....     5
   Bias factor          DIISBfac        ....   1.050
   Max. coefficient     DIISMaxC        ....  10.000
 Newton-Raphson         CNVNR           .... off
 SOSCF                  CNVSOSCF        .... off
 Level Shifting         CNVShift        .... on
   Level shift para.    LevelShift      ....    0.2500
   Turn off err/grad.   ShiftErr        ....    0.0010
 Zerner damping         CNVZerner       .... off
 Static damping         CNVDamp         .... on
   Fraction old density DampFac         ....    0.7000
   Max. Damping (<1)    DampMax         ....    0.9800
   Min. Damping (>=0)   DampMin         ....    0.0000
   Turn off err/grad.   DampErr         ....    0.1000
 Fernandez-Rico         CNVRico         .... off

SCF Procedure:
 Maximum # iterations   MaxIter         ....   500
 SCF integral mode      SCFMode         .... Direct
   Integral package                     .... LIBINT
 Reset frequency        DirectResetFreq ....    20
 Integral Threshold     Thresh          ....  1.000e-12 Eh
 Primitive CutOff       TCut            ....  1.000e-14 Eh

Convergence Tolerance:
 Convergence Check Mode ConvCheckMode   .... Total+1el-Energy
 Convergence forced     ConvForced      .... 0
 Energy Change          TolE            ....  1.000e-09 Eh
 1-El. energy change                    ....  1.000e-06 Eh
 DIIS Error             TolErr          ....  1.000e-08


Diagonalization of the overlap matrix:
Smallest eigenvalue                        ... 2.506e-03
Time for diagonalization                   ...    0.001 sec
Threshold for overlap eigenvalues          ... 1.000e-08
Number of eigenvalues below threshold      ... 0
Time for construction of square roots      ...    0.333 sec
Total time needed                          ...    0.334 sec

-------------------
DFT GRID GENERATION
-------------------

General Integration Accuracy     IntAcc      ...  4.340
Radial Grid Type                 RadialGrid  ... Gauss-Chebyshev
Angular Grid (max. acc.)         AngularGrid ... Lebedev-110
Angular grid pruning method      GridPruning ... 3 (G Style)
Weight generation scheme         WeightScheme... Becke
Basis function cutoff            BFCut       ...    1.0000e-12
Integration weight cutoff        WCut        ...    1.0000e-14
Grids for H and He will be reduced by one unit

# of grid points (after initial pruning)     ...  13770 (   0.0 sec)
# of grid points (after weights+screening)   ...  12926 (   0.0 sec)
nearest neighbour list constructed           ...    0.0 sec
Grid point re-assignment to atoms done       ...    0.0 sec
Grid point division into batches done        ...    0.0 sec
Reduced shell lists constructed in    0.1 sec

Total number of grid points                  ...    12926
Total number of batches                      ...      209
Average number of points per batch           ...       61
Average number of grid points per atom       ...      994
Average number of shells per batch           ...    37.24 (88.66%)
Average number of basis functions per batch  ...    66.38 (89.70%)
Average number of large shells per batch     ...    32.20 (86.46%)
Average number of large basis fcns per batch ...    57.00 (85.86%)
Maximum spatial batch extension              ...  20.53, 20.69, 21.25 au
Average spatial batch extension              ...   4.10,  3.99,  4.16 au

Time for grid setup =    2.118 sec

------------------------------
INITIAL GUESS: MODEL POTENTIAL
------------------------------
Loading Hartree-Fock densities                     ... done
Calculating cut-offs                               ... done
Setting up the integral package                    ... done
Initializing the effective Hamiltonian             ... done
Starting the Coulomb interaction                   ... done (   0.0 sec)
Reading the grid                                   ... done
Mapping shells                                     ... done
Starting the XC term evaluation                    ... done (   0.1 sec)
  promolecular density results
     # of electrons  =     32.991888634
     EX              =    -23.183177085
     EC              =     -1.030688917
     EX+EC           =    -24.213866002
Transforming the Hamiltonian                       ... done (   0.0 sec)
Diagonalizing the Hamiltonian                      ... done (   0.0 sec)
Back transforming the eigenvectors                 ... done (   0.0 sec)
Now organizing SCF variables                       ... done
                      ------------------
                      INITIAL GUESS DONE (   2.4 sec)
                      ------------------
--------------
SCF ITERATIONS
--------------
ITER       Energy         Delta-E        Max-DP      RMS-DP      [F,P]     Damp
               ***  Starting incremental Fock matrix formation  ***
  0   -157.3648242304   0.000000000000 0.04296828  0.00224972  0.1717791 0.7000
  1   -157.4399556896  -0.075131459241 0.02678427  0.00164213  0.0898315 0.7000
                               ***Turning on DIIS***
  2   -157.4704727351  -0.030517045442 0.04016566  0.00269857  0.0339727 0.0000
  3   -157.5111546619  -0.040681926769 0.01787147  0.00115671  0.0490535 0.0000
  4   -157.5248972949  -0.013742633043 0.00410432  0.00034506  0.0107302 0.0000
  5   -157.5256636897  -0.000766394756 0.00200469  0.00013382  0.0021343 0.0000
  6   -157.5257234692  -0.000059779567 0.00142269  0.00008582  0.0005202 0.0000
  7   -157.5257328381  -0.000009368889 0.00037745  0.00001341  0.0003215 0.0000
  8   -157.5257334294  -0.000000591244 0.00017902  0.00000528  0.0001520 0.0000
  9   -157.5257335831  -0.000000153768 0.00003839  0.00000179  0.0000140 0.0000
 10   -157.5257335969  -0.000000013814 0.00001377  0.00000059  0.0000042 0.0000
 11   -157.5257335990  -0.000000002015 0.00000611  0.00000028  0.0000021 0.0000
 12   -157.5257335994  -0.000000000486 0.00000224  0.00000011  0.0000016 0.0000
 13   -157.5257335995  -0.000000000102 0.00000211  0.00000011  0.0000004 0.0000
 14   -157.5257335996  -0.000000000039 0.00000027  0.00000001  0.0000003 0.0000
 15   -157.5257335996   0.000000000006 0.00000036  0.00000002  0.0000001 0.0000
                 **** Energy Check signals convergence ****

 Fermi smearing  (ALPHA): E(HOMO(Eh)) = -0.327257 MUE = -0.069199 gap=   6.846 eV
 Fermi smearing   (BETA): E(HOMO(Eh)) = -0.321684 MUE = -0.182475 gap=   7.498 eV

N_FOD(alpha) =  0.000000
 N_FOD(beta) =  0.000000
       N_FOD =  0.000000

               *****************************************************
               *                     SUCCESS                       *
               *           SCF CONVERGED AFTER  16 CYCLES          *
               *****************************************************

Setting up the final grid:

General Integration Accuracy     IntAcc      ...  4.670
Radial Grid Type                 RadialGrid  ... Gauss-Chebyshev
Angular Grid (max. acc.)         AngularGrid ... Lebedev-302
Angular grid pruning method      GridPruning ... 3 (G Style)
Weight generation scheme         WeightScheme... Becke
Basis function cutoff            BFCut       ...    1.0000e-12
Integration weight cutoff        WCut        ...    1.0000e-14
Grids for H and He will be reduced by one unit

# of grid points (after initial pruning)     ...  55394 (   0.0 sec)
# of grid points (after weights+screening)   ...  51279 (   0.1 sec)
nearest neighbour list constructed           ...    0.0 sec
Grid point re-assignment to atoms done       ...    0.0 sec
Grid point division into batches done        ...    0.2 sec
Reduced shell lists constructed in    0.3 sec

Total number of grid points                  ...    51279
Total number of batches                      ...      810
Average number of points per batch           ...       63
Average number of grid points per atom       ...     3945
Average number of shells per batch           ...    34.87 (83.03%)
Average number of basis functions per batch  ...    61.97 (83.75%)
Average number of large shells per batch     ...    29.60 (84.88%)
Average number of large basis fcns per batch ...    52.14 (84.14%)
Maximum spatial batch extension              ...  18.31, 19.30, 21.38 au
Average spatial batch extension              ...   2.63,  2.62,  2.56 au

Final grid set up in    2.1 sec
Final integration                            ... done (   2.3 sec)
Change in XC energy                          ...    -0.000526187
Integrated number of electrons               ...    32.999865292
Previous integrated no of electrons          ...    32.996813443

----------------
TOTAL SCF ENERGY
----------------

Total Energy       :         -157.52625979 Eh           -4286.50745 eV

Components:
Nuclear Repulsion  :          125.91751061 Eh            3426.38966 eV
Electronic Energy  :         -283.44377039 Eh           -7712.89711 eV
One Electron Energy:         -459.43407033 Eh          -12501.83663 eV
Two Electron Energy:          175.99029994 Eh            4788.93953 eV

Virial components:
Potential Energy   :         -313.36707815 Eh           -8527.15171 eV
Kinetic Energy     :          155.84081836 Eh            4240.64426 eV
Virial Ratio       :            2.01081515


DFT components:
N(Alpha)           :       16.999937257857 electrons
N(Beta)            :       15.999928034230 electrons
N(Total)           :       32.999865292087 electrons
E(X)               :      -18.880327118602 Eh       
E(C)               :       -1.221581460597 Eh       
E(XC)              :      -20.101908579199 Eh       
DFET-embed. en.    :        0.000000000000 Eh       

---------------
SCF CONVERGENCE
---------------

  Last Energy change         ...    2.0094e-11  Tolerance :   1.0000e-09
  Last MAX-Density change    ...    2.1144e-07  Tolerance :   1.0000e-08
  Last RMS-Density change    ...    1.5687e-08  Tolerance :   1.0000e-09
  Last DIIS Error            ...    1.9168e-08  Tolerance :   1.0000e-08

             **** THE GBW FILE WAS UPDATED (orca3.gbw) ****
             **** DENSITY FILE WAS UPDATED (orca3.scfp) ****
             **** ENERGY FILE WAS UPDATED (orca3.en.tmp) ****
             **** THE GBW FILE WAS UPDATED (orca3.gbw) ****
             **** DENSITY FILE WAS UPDATED (orca3.scfp) ****
----------------
ORBITAL ENERGIES
----------------
                 SPIN UP ORBITALS
  NO   OCC          E(Eh)            E(eV) 
   0   1.0000     -10.188104      -277.2324 
   1   1.0000     -10.169602      -276.7289 
   2   1.0000     -10.167605      -276.6746 
   3   1.0000     -10.166534      -276.6455 
   4   1.0000      -0.795713       -21.6524 
   5   1.0000      -0.676146       -18.3989 
   6   1.0000      -0.672608       -18.3026 
   7   1.0000      -0.523075       -14.2336 
   8   1.0000      -0.450322       -12.2539 
   9   1.0000      -0.438618       -11.9354 
  10   1.0000      -0.426361       -11.6019 
  11   1.0000      -0.396889       -10.7999 
  12   1.0000      -0.381126       -10.3710 
  13   1.0000      -0.356579        -9.7030 
  14   1.0000      -0.330519        -8.9939 
  15   1.0000      -0.327257        -8.9051 
  16   1.0000      -0.194992        -5.3060 
  17   0.0000       0.056595         1.5400 
  18   0.0000       0.104482         2.8431 
  19   0.0000       0.107368         2.9216 
  20   0.0000       0.119626         3.2552 
  21   0.0000       0.123314         3.3556 
  22   0.0000       0.128093         3.4856 
  23   0.0000       0.150653         4.0995 
  24   0.0000       0.159223         4.3327 
  25   0.0000       0.175774         4.7830 
  26   0.0000       0.209889         5.7114 
  27   0.0000       0.261234         7.1085 
  28   0.0000       0.280885         7.6433 
  29   0.0000       0.409051        11.1308 
  30   0.0000       0.433203        11.7880 
  31   0.0000       0.445816        12.1313 
  32   0.0000       0.459007        12.4902 
  33   0.0000       0.498579        13.5670 
  34   0.0000       0.512206        13.9378 
  35   0.0000       0.585007        15.9189 
  36   0.0000       0.612138        16.6571 
  37   0.0000       0.635682        17.2978 
  38   0.0000       0.645602        17.5677 
  39   0.0000       0.660805        17.9814 
  40   0.0000       0.676373        18.4050 
  41   0.0000       0.684593        18.6287 
  42   0.0000       0.693567        18.8729 
  43   0.0000       0.698024        18.9942 
  44   0.0000       0.709565        19.3082 
  45   0.0000       0.719560        19.5802 
  46   0.0000       0.728432        19.8217 
  47   0.0000       0.735472        20.0132 
  48   0.0000       0.747206        20.3325 
  49   0.0000       0.755859        20.5680 
  50   0.0000       0.788248        21.4493 
  51   0.0000       0.842590        22.9280 
  52   0.0000       0.981986        26.7212 
  53   0.0000       1.003126        27.2964 
  54   0.0000       1.413515        38.4637 
  55   0.0000       1.420440        38.6521 
  56   0.0000       1.752863        47.6978 
  57   0.0000       1.754859        47.7521 
  58   0.0000       1.778539        48.3965 
  59   0.0000       1.788921        48.6790 
  60   0.0000       1.904006        51.8106 
  61   0.0000       1.968697        53.5710 
  62   0.0000       2.006386        54.5965 
  63   0.0000       2.032385        55.3040 
  64   0.0000       2.076625        56.5079 
  65   0.0000       2.134154        58.0733 
  66   0.0000       2.147959        58.4489 
  67   0.0000       2.169021        59.0221 
  68   0.0000       2.178829        59.2889 
  69   0.0000       2.418818        65.8194 
  70   0.0000       2.457165        66.8629 
  71   0.0000       2.462281        67.0021 
  72   0.0000       2.703459        73.5649 
  73   0.0000       2.709331        73.7246 

                 SPIN DOWN ORBITALS
  NO   OCC          E(Eh)            E(eV) 
   0   1.0000     -10.173362      -276.8313 
   1   1.0000     -10.170138      -276.7435 
   2   1.0000     -10.168132      -276.6889 
   3   1.0000     -10.166993      -276.6579 
   4   1.0000      -0.780314       -21.2334 
   5   1.0000      -0.673497       -18.3268 
   6   1.0000      -0.670169       -18.2362 
   7   1.0000      -0.505329       -13.7507 
   8   1.0000      -0.438475       -11.9315 
   9   1.0000      -0.431452       -11.7404 
  10   1.0000      -0.420716       -11.4483 
  11   1.0000      -0.390812       -10.6345 
  12   1.0000      -0.375631       -10.2214 
  13   1.0000      -0.355256        -9.6670 
  14   1.0000      -0.325118        -8.8469 
  15   1.0000      -0.321684        -8.7535 
  16   0.0000      -0.046139        -1.2555 
  17   0.0000       0.058549         1.5932 
  18   0.0000       0.105663         2.8752 
  19   0.0000       0.108495         2.9523 
  20   0.0000       0.121506         3.3063 
  21   0.0000       0.125406         3.4125 
  22   0.0000       0.134345         3.6557 
  23   0.0000       0.153500         4.1770 
  24   0.0000       0.163169         4.4401 
  25   0.0000       0.176247         4.7959 
  26   0.0000       0.219511         5.9732 
  27   0.0000       0.271490         7.3876 
  28   0.0000       0.289989         7.8910 
  29   0.0000       0.412393        11.2218 
  30   0.0000       0.437503        11.9051 
  31   0.0000       0.450553        12.2602 
  32   0.0000       0.470332        12.7984 
  33   0.0000       0.513244        13.9661 
  34   0.0000       0.555225        15.1084 
  35   0.0000       0.591845        16.1049 
  36   0.0000       0.617377        16.7997 
  37   0.0000       0.644926        17.5493 
  38   0.0000       0.652286        17.7496 
  39   0.0000       0.662518        18.0280 
  40   0.0000       0.682755        18.5787 
  41   0.0000       0.688014        18.7218 
  42   0.0000       0.697138        18.9701 
  43   0.0000       0.701126        19.0786 
  44   0.0000       0.712692        19.3933 
  45   0.0000       0.723317        19.6825 
  46   0.0000       0.730677        19.8827 
  47   0.0000       0.739339        20.1184 
  48   0.0000       0.752702        20.4820 
  49   0.0000       0.759175        20.6582 
  50   0.0000       0.801520        21.8105 
  51   0.0000       0.851769        23.1778 
  52   0.0000       0.985294        26.8112 
  53   0.0000       1.006119        27.3779 
  54   0.0000       1.431822        38.9619 
  55   0.0000       1.437841        39.1256 
  56   0.0000       1.752046        47.6756 
  57   0.0000       1.779196        48.4144 
  58   0.0000       1.786560        48.6148 
  59   0.0000       1.800275        48.9880 
  60   0.0000       1.918500        52.2050 
  61   0.0000       1.978177        53.8289 
  62   0.0000       2.021935        55.0197 
  63   0.0000       2.039520        55.4982 
  64   0.0000       2.081846        56.6499 
  65   0.0000       2.135255        58.1032 
  66   0.0000       2.148162        58.4545 
  67   0.0000       2.171265        59.0831 
  68   0.0000       2.182963        59.4015 
  69   0.0000       2.445883        66.5559 
  70   0.0000       2.479893        67.4813 
  71   0.0000       2.486813        67.6696 
  72   0.0000       2.715683        73.8975 
  73   0.0000       2.721435        74.0540 

                    ********************************
                    * MULLIKEN POPULATION ANALYSIS *
                    ********************************

------------------------------------------
FOD BASED MULLIKEN REDUCED ORBITAL CHARGES
------------------------------------------
  0 C s       :     0.000000  s :     0.000000
      pz      :     0.000000  p :     0.000000
      px      :     0.000000
      py      :     0.000000
      dz2     :     0.000000  d :     0.000000
      dxz     :     0.000000
      dyz     :     0.000000
      dx2y2   :     0.000000
      dxy     :     0.000000
  1 C s       :    -0.000000  s :    -0.000000
      pz      :     0.000000  p :     0.000000
      px      :     0.000000
      py      :     0.000000
      dz2     :     0.000000  d :     0.000000
      dxz     :     0.000000
      dyz     :     0.000000
      dx2y2   :     0.000000
      dxy     :     0.000000
  2 C s       :    -0.000000  s :    -0.000000
      pz      :     0.000000  p :     0.000000
      px      :     0.000000
      py      :     0.000000
      dz2     :     0.000000  d :     0.000000
      dxz     :     0.000000
      dyz     :     0.000000
      dx2y2   :     0.000000
      dxy     :     0.000000
  3 C s       :    -0.000000  s :    -0.000000
      pz      :     0.000000  p :     0.000000
      px      :     0.000000
      py      :     0.000000
      dz2     :     0.000000  d :     0.000000
      dxz     :     0.000000
      dyz     :     0.000000
      dx2y2   :     0.000000
      dxy     :     0.000000
  4 H s       :     0.000000  s :     0.000000
  5 H s       :     0.000000  s :     0.000000
  6 H s       :     0.000000  s :     0.000000
  7 H s       :     0.000000  s :     0.000000
  8 H s       :     0.000000  s :     0.000000
  9 H s       :     0.000000  s :     0.000000
 10 H s       :     0.000000  s :     0.000000
 11 H s       :     0.000000  s :     0.000000
 12 H s       :     0.000000  s :     0.000000


                     *******************************
                     * LOEWDIN POPULATION ANALYSIS *
                     *******************************

-------------------------------------------
LOEWDIN ATOMIC CHARGES AND SPIN POPULATIONS
-------------------------------------------
   0 C :   -0.076751    0.837374
   1 C :   -0.318103   -0.009594
   2 C :   -0.316035   -0.012385
   3 C :   -0.316841   -0.012235
   4 H :    0.113559    0.014913
   5 H :    0.118038    0.048609
   6 H :    0.112580    0.003574
   7 H :    0.113964    0.014995
   8 H :    0.110065    0.001985
   9 H :    0.115644    0.044227
  10 H :    0.111610    0.004070
  11 H :    0.119061    0.030973
  12 H :    0.113209    0.033495

----------------------------------------------------
LOEWDIN REDUCED ORBITAL CHARGES AND SPIN POPULATIONS
----------------------------------------------------
CHARGE
  0 C s       :     2.929464  s :     2.929464
      pz      :     0.971097  p :     3.052423
      px      :     1.040395
      py      :     1.040931
      dz2     :     0.009102  d :     0.094864
      dxz     :     0.015676
      dyz     :     0.011826
      dx2y2   :     0.026518
      dxy     :     0.031742
  1 C s       :     2.952970  s :     2.952970
      pz      :     1.100420  p :     3.287739
      px      :     1.080824
      py      :     1.106496
      dz2     :     0.020080  d :     0.077394
      dxz     :     0.014384
      dyz     :     0.010509
      dx2y2   :     0.013810
      dxy     :     0.018612
  2 C s       :     2.955318  s :     2.955318
      pz      :     1.099013  p :     3.284388
      px      :     1.100708
      py      :     1.084667
      dz2     :     0.017341  d :     0.076329
      dxz     :     0.019376
      dyz     :     0.007203
      dx2y2   :     0.012840
      dxy     :     0.019569
  3 C s       :     2.958146  s :     2.958146
      pz      :     1.105420  p :     3.283021
      px      :     1.093648
      py      :     1.083952
      dz2     :     0.007174  d :     0.075674
      dxz     :     0.022220
      dyz     :     0.015214
      dx2y2   :     0.009956
      dxy     :     0.021110
  4 H s       :     0.886441  s :     0.886441
  5 H s       :     0.881962  s :     0.881962
  6 H s       :     0.887420  s :     0.887420
  7 H s       :     0.886036  s :     0.886036
  8 H s       :     0.889935  s :     0.889935
  9 H s       :     0.884356  s :     0.884356
 10 H s       :     0.888390  s :     0.888390
 11 H s       :     0.880939  s :     0.880939
 12 H s       :     0.886791  s :     0.886791

SPIN
  0 C s       :     0.077467  s :     0.077467
      pz      :     0.714625  p :     0.762448
      px      :     0.026614
      py      :     0.021208
      dz2     :     0.000148  d :    -0.002541
      dxz     :    -0.000833
      dyz     :    -0.000582
      dx2y2   :    -0.000417
      dxy     :    -0.000856
  1 C s       :    -0.001418  s :    -0.001418
      pz      :    -0.008201  p :    -0.021930
      px      :    -0.011418
      py      :    -0.002310
      dz2     :     0.006313  d :     0.013754
      dxz     :     0.005431
      dyz     :     0.000956
      dx2y2   :     0.000848
      dxy     :     0.000207
  2 C s       :    -0.002020  s :    -0.002020
      pz      :    -0.008755  p :    -0.022634
      px      :    -0.006202
      py      :    -0.007676
      dz2     :     0.002522  d :     0.012268
      dxz     :     0.004891
      dyz     :     0.004024
      dx2y2   :     0.000290
      dxy     :     0.000540
  3 C s       :    -0.002275  s :    -0.002275
      pz      :    -0.007756  p :    -0.023320
      px      :    -0.006947
      py      :    -0.008617
      dz2     :     0.001037  d :     0.013360
      dxz     :     0.005448
      dyz     :     0.004610
      dx2y2   :     0.000846
      dxy     :     0.001420
  4 H s       :     0.014913  s :     0.014913
  5 H s       :     0.048609  s :     0.048609
  6 H s       :     0.003574  s :     0.003574
  7 H s       :     0.014995  s :     0.014995
  8 H s       :     0.001985  s :     0.001985
  9 H s       :     0.044227  s :     0.044227
 10 H s       :     0.004070  s :     0.004070
 11 H s       :     0.030973  s :     0.030973
 12 H s       :     0.033495  s :     0.033495


                      *****************************
                      * MAYER POPULATION ANALYSIS *
                      *****************************

  NA   - Mulliken gross atomic population
  ZA   - Total nuclear charge
  QA   - Mulliken gross atomic charge
  VA   - Mayer's total valence
  BVA  - Mayer's bonded valence
  FA   - Mayer's free valence

  ATOM       NA         ZA         QA         VA         BVA        FA
  0 C      6.1256     6.0000    -0.1256     4.1542     3.4249     0.7292
  1 C      6.2318     6.0000    -0.2318     3.9346     3.9317     0.0029
  2 C      6.2349     6.0000    -0.2349     3.9342     3.9316     0.0026
  3 C      6.2529     6.0000    -0.2529     3.9033     3.9006     0.0027
  4 H      0.9083     1.0000     0.0917     0.9564     0.9562     0.0002
  5 H      0.9017     1.0000     0.0983     0.9550     0.9511     0.0039
  6 H      0.9074     1.0000     0.0926     0.9588     0.9588     0.0000
  7 H      0.9055     1.0000     0.0945     0.9527     0.9525     0.0002
  8 H      0.9117     1.0000     0.0883     0.9610     0.9609     0.0000
  9 H      0.9051     1.0000     0.0949     0.9605     0.9574     0.0031
 10 H      0.9099     1.0000     0.0901     0.9664     0.9664     0.0000
 11 H      0.8993     1.0000     0.1007     0.9498     0.9487     0.0011
 12 H      0.9059     1.0000     0.0941     0.9629     0.9610     0.0019

  Mayer bond orders larger than 0.100000
B(  0-C ,  1-C ) :   1.1123 B(  0-C ,  2-C ) :   1.1062 B(  0-C ,  3-C ) :   1.0833 
B(  1-C ,  4-H ) :   0.9526 B(  1-C ,  5-H ) :   0.9318 B(  1-C ,  6-H ) :   0.9518 
B(  2-C ,  7-H ) :   0.9548 B(  2-C ,  8-H ) :   0.9596 B(  2-C ,  9-H ) :   0.9281 
B(  3-C , 10-H ) :   0.9559 B(  3-C , 11-H ) :   0.9446 B(  3-C , 12-H ) :   0.9395 


-------
TIMINGS
-------

Total SCF time: 0 days 0 hours 2 min 5 sec 

Total time                  ....     125.572 sec
Sum of individual times     ....     106.640 sec  ( 84.9%)

Fock matrix formation       ....      89.996 sec  ( 71.7%)
  XC integration            ....      36.715 sec  ( 40.8% of F)
    Basis function eval.    ....       1.019 sec  (  2.8% of XC)
    Density eval.           ....       0.756 sec  (  2.1% of XC)
    XC-Functional eval.     ....       0.486 sec  (  1.3% of XC)
    XC-Potential eval.      ....       0.952 sec  (  2.6% of XC)
Diagonalization             ....       0.051 sec  (  0.0%)
Density matrix formation    ....       7.240 sec  (  5.8%)
Population analysis         ....       1.492 sec  (  1.2%)
Initial guess               ....       0.258 sec  (  0.2%)
Orbital Transformation      ....       0.000 sec  (  0.0%)
Orbital Orthonormalization  ....       0.000 sec  (  0.0%)
DIIS solution               ....       3.426 sec  (  2.7%)
Grid generation             ....       4.178 sec  (  3.3%)


-------------------------------------------------------------------------------
                          DFT DISPERSION CORRECTION                            
                                                                               
                              DFTD3 V3.1  Rev 1                                
                          USING Becke-Johnson damping                          
-------------------------------------------------------------------------------
The B3LYP functional is recognized
Active option DFTDOPT                   ...         4   

molecular C6(AA) [au] = 1132.888882 


            DFT-D V3
 parameters
 s6 scaling factor         :     1.0000 
 a1 scaling factor         :     0.3981 
 s8 scaling factor         :     1.9889 
 a2 scaling factor         :     4.4211 
 ad hoc parameters k1-k3   :    16.0000     1.3333    -4.0000 

 Edisp/kcal,au: -8.947651920147  -0.014258989442 
 E6   /kcal   :  -4.431927865 
 E8   /kcal   :  -4.515724055 
 % E8         :  50.468257988 

-------------------------   ----------------
Dispersion correction           -0.014258989
-------------------------   ----------------


-------------------------   --------------------
FINAL SINGLE POINT ENERGY      -157.540518776147
-------------------------   --------------------

------------------------------------------------------------------------------
                         ORCA SCF GRADIENT CALCULATION
------------------------------------------------------------------------------

Gradient of the Kohn-Sham DFT energy:
Kohn-Sham wavefunction type      ... UKS
Hartree-Fock exchange scaling    ...    0.200
Number of operators              ...    2
Number of atoms                  ...   13
Basis set dimensions             ...   74
Integral neglect threshold       ... 1.0e-12
Integral primitive cutoff        ... 1.0e-14

Nuclear repulsion gradient       ... done
One Electron Gradient            ... done
Pre-screening matrix             ... done
Starting the two electron gradient:
Two electron gradient done
Exchange-correlation gradient    ... done
Dispersion correction            ... done

------------------
CARTESIAN GRADIENT
------------------

   1   C   :   -0.009115529    0.010167061   -0.046819498
   2   C   :    0.005344795    0.005576505    0.042938028
   3   C   :   -0.000971328   -0.001865891    0.039106496
   4   C   :   -0.001374707   -0.020803612    0.016671872
   5   H   :    0.002498955   -0.002435963   -0.007151536
   6   H   :   -0.001561565   -0.002213830   -0.010185148
   7   H   :    0.009291451   -0.002344208   -0.008580001
   8   H   :    0.000147848    0.001258525   -0.009545356
   9   H   :   -0.000996206    0.004307263   -0.007401132
  10   H   :   -0.000496332    0.005297775   -0.004627096
  11   H   :   -0.010853824    0.002786193   -0.001152164
  12   H   :    0.000562954    0.001476565   -0.003781712
  13   H   :    0.007523487   -0.001206382    0.000527246

Difference to translation invariance:
           :    0.0000000000   -0.0000000000   -0.0000000000

Norm of the cartesian gradient     ...    0.0853632098
RMS gradient                       ...    0.0136690532
MAX gradient                       ...    0.0468194976

-------
TIMINGS
-------

Total SCF gradient time            ...        4.829 sec

One electron gradient       ....       0.027 sec  (  0.6%)
Prescreening matrices       ....       0.026 sec  (  0.5%)
Two electron gradient       ....       1.411 sec  ( 29.2%)
XC gradient                 ....       2.742 sec  ( 56.8%)
------------------------------------------------------------------------------
                         ORCA GEOMETRY RELAXATION STEP
------------------------------------------------------------------------------

Reading the OPT-File                    .... done
Getting information on internals        .... done
Copying old internal coords+grads       .... done
Making the new internal coordinates     .... (new redundants).... done
Validating the new internal coordinates .... (new redundants).... done
Calculating the B-matrix                .... done
Calculating the G,G- and P matrices     .... done
Transforming gradient to internals      .... done
Projecting the internal gradient        .... done
Number of atoms                         ....  13
Number of internal coordinates          ....  51
Current Energy                          ....  -157.540518776 Eh
Current gradient norm                   ....     0.085363210 Eh/bohr
Maximum allowed component of the step   ....  0.300
Current trust radius                    ....  0.300
Evaluating the initial hessian          ....  (Almloef) done
Projecting the Hessian                  .... done
Forming the augmented Hessian           .... done
Diagonalizing the augmented Hessian     .... done
Last element of RFO vector              ....  0.910142230
Lowest eigenvalues of augmented Hessian:
 -0.014300527  0.012009867  0.012463681  0.013024180  0.043180620
Length of the computed step             ....  0.455199111
Warning: the length of the step is outside the trust region - taking restricted step instead
The input lambda is                     ....    -0.014301
   iter:   1  x=   -0.028569  g=    8.214071 f(x)=     0.117206
   iter:   2  x=   -0.038864  g=    3.702994 f(x)=     0.038122
   iter:   3  x=   -0.042099  g=    2.359683 f(x)=     0.007632
   iter:   4  x=   -0.042324  g=    2.078673 f(x)=     0.000468
   iter:   5  x=   -0.042325  g=    2.060882 f(x)=     0.000002
   iter:   6  x=   -0.042325  g=    2.060806 f(x)=     0.000000
   iter:   7  x=   -0.042325  g=    2.060806 f(x)=    -0.000000
The output lambda is                    ....    -0.042325 (7 iterations)
The final length of the internal step   ....  0.300000000
Converting the step to cartesian space:
 Initial RMS(Int)=    0.0420084025
Transforming coordinates:
 Iter   0:  RMS(Cart)=    0.0500561355 RMS(Int)=    0.0427698267
 Iter   1:  RMS(Cart)=    0.0021950452 RMS(Int)=    0.0012474050
 Iter   2:  RMS(Cart)=    0.0000711735 RMS(Int)=    0.0000468078
 Iter   3:  RMS(Cart)=    0.0000031186 RMS(Int)=    0.0000026175
 Iter   4:  RMS(Cart)=    0.0000002061 RMS(Int)=    0.0000001246
 Iter   5:  RMS(Cart)=    0.0000000080 RMS(Int)=    0.0000000058
done
Storing new coordinates                 .... done

                                .--------------------.
          ----------------------|Geometry convergence|-------------------------
          Item                value                   Tolerance       Converged
          ---------------------------------------------------------------------
          RMS gradient        0.0063211767            0.0001000000      NO
          MAX gradient        0.0153445380            0.0003000000      NO
          RMS step            0.0420084025            0.0020000000      NO
          MAX step            0.0905958334            0.0040000000      NO
          ........................................................
          Max(Bonds)      0.0152      Max(Angles)    2.49
          Max(Dihed)        5.19      Max(Improp)    0.00
          ---------------------------------------------------------------------

The optimization has not yet converged - more geometry cycles are needed


    ---------------------------------------------------------------------------
                         Redundant Internal Coordinates
                            (Angstroem and degrees)

        Definition                    Value    dE/dq     Step     New-Value
    ----------------------------------------------------------------------------
     1. B(C   1,C   0)                1.5052 -0.008175  0.0096    1.5148   
     2. B(C   2,C   0)                1.5107 -0.005775  0.0069    1.5176   
     3. B(C   3,C   0)                1.4995 -0.013193  0.0152    1.5147   
     4. B(H   4,C   1)                1.1166  0.004237 -0.0061    1.1106   
     5. B(H   5,C   1)                1.0953 -0.009007  0.0120    1.1073   
     6. B(H   6,C   1)                1.0980 -0.004436  0.0060    1.1040   
     7. B(H   7,C   2)                1.1198  0.006160 -0.0089    1.1108   
     8. B(H   8,C   2)                1.1035 -0.001262  0.0017    1.1052   
     9. B(H   9,C   2)                1.1004 -0.004527  0.0062    1.1065   
    10. B(H  10,C   3)                1.1186  0.008458 -0.0122    1.1064   
    11. B(H  11,C   3)                1.1187  0.003839 -0.0055    1.1132   
    12. B(H  12,C   3)                1.1179  0.006068 -0.0087    1.1091   
    13. A(C   1,C   0,C   3)          113.46 -0.004295    2.42    115.89   
    14. A(C   2,C   0,C   3)          111.93 -0.004607    2.49    114.42   
    15. A(C   1,C   0,C   2)          113.06  0.000111    1.62    114.68   
    16. A(H   4,C   1,H   5)          107.26  0.002041   -0.34    106.92   
    17. A(H   5,C   1,H   6)          113.58  0.008868   -2.04    111.54   
    18. A(H   4,C   1,H   6)          106.97  0.004574    0.00    106.97   
    19. A(C   0,C   1,H   4)          107.19 -0.010512    1.95    109.13   
    20. A(C   0,C   1,H   5)          114.54  0.009308   -1.68    112.86   
    21. A(C   0,C   1,H   6)          106.89 -0.015345    2.40    109.29   
    22. A(H   7,C   2,H   9)          109.26  0.005413   -1.00    108.26   
    23. A(C   0,C   2,H   9)          110.05 -0.001318   -0.06    110.00   
    24. A(H   7,C   2,H   8)          105.11  0.000369    0.70    105.81   
    25. A(C   0,C   2,H   8)          109.99 -0.006096    1.02    111.01   
    26. A(H   8,C   2,H   9)          113.42  0.008509   -1.97    111.45   
    27. A(C   0,C   2,H   7)          108.81 -0.007330    1.45    110.26   
    28. A(H  11,C   3,H  12)          104.98 -0.000945    0.16    105.14   
    29. A(H  10,C   3,H  12)          111.60  0.006038   -1.38    110.22   
    30. A(C   0,C   3,H  12)          113.60  0.004155   -0.81    112.79   
    31. A(H  10,C   3,H  11)          105.78  0.002216    0.07    105.85   
    32. A(C   0,C   3,H  11)          111.37 -0.001623    0.44    111.81   
    33. A(C   0,C   3,H  10)          109.19 -0.009503    1.52    110.71   
    34. D(H   6,C   1,C   0,C   2)    176.90 -0.001344    2.86    179.76   
    35. D(H   4,C   1,C   0,C   2)    -68.70 -0.008392    4.93    -63.77   
    36. D(H   6,C   1,C   0,C   3)     48.05  0.008908   -4.28     43.76   
    37. D(H   5,C   1,C   0,C   2)     50.16 -0.007474    4.84     55.00   
    38. D(H   4,C   1,C   0,C   3)    162.45  0.001860   -2.21    160.24   
    39. D(H   5,C   1,C   0,C   3)    -78.69  0.002778   -2.31    -81.00   
    40. D(H   7,C   2,C   0,C   1)    160.54  0.001446   -1.81    158.73   
    41. D(H   9,C   2,C   0,C   3)     49.88 -0.007214    4.83     54.70   
    42. D(H   9,C   2,C   0,C   1)    -79.76  0.002767   -2.18    -81.94   
    43. D(H   8,C   2,C   0,C   3)    175.54 -0.001593    2.99    178.53   
    44. D(H   8,C   2,C   0,C   1)     45.90  0.008388   -4.01     41.89   
    45. D(H   7,C   2,C   0,C   3)    -69.82 -0.008534    5.19    -64.63   
    46. D(H  11,C   3,C   0,C   1)   -132.91 -0.001607    2.09   -130.82   
    47. D(H  10,C   3,C   0,C   2)   -145.89  0.002086   -3.26   -149.16   
    48. D(H  10,C   3,C   0,C   1)    -16.46 -0.005644    3.35    -13.11   
    49. D(H  12,C   3,C   0,C   2)    -20.63  0.005661   -4.49    -25.12   
    50. D(H  12,C   3,C   0,C   1)    108.80 -0.002069    2.12    110.93   
    51. D(H  11,C   3,C   0,C   2)     97.66  0.006123   -4.53     93.13   
    ----------------------------------------------------------------------------

Time needed for optimization step       :     1.34 sec

         *************************************************************
         *                GEOMETRY OPTIMIZATION CYCLE   2            *
         *************************************************************
---------------------------------
CARTESIAN COORDINATES (ANGSTROEM)
---------------------------------
  C     -0.035285    0.021937   -0.327351
  C     -1.466558   -0.035676    0.165267
  C      0.747261   -1.264373   -0.136911
  C      0.733371    1.276493    0.032585
  H     -2.026609   -0.786122   -0.431830
  H     -1.544578   -0.344112    1.225888
  H     -1.951614    0.940503   -0.009872
  H      1.613303   -1.293945   -0.831928
  H      0.129001   -2.145025   -0.389452
  H      1.131839   -1.323487    0.898963
  H      0.048596    2.060929    0.406539
  H      1.244558    1.716563   -0.852929
  H      1.540708    1.089175    0.769670

----------------------------
CARTESIAN COORDINATES (A.U.)
----------------------------
  NO LB      ZA    FRAG     MASS         X           Y           Z
   0 C     6.0000    0    12.011   -0.066679    0.041455   -0.618603
   1 C     6.0000    0    12.011   -2.771393   -0.067418    0.312309
   2 C     6.0000    0    12.011    1.412118   -2.389318   -0.258724
   3 C     6.0000    0    12.011    1.385870    2.412222    0.061577
   4 H     1.0000    0     1.008   -3.829736   -1.485554   -0.816040
   5 H     1.0000    0     1.008   -2.918829   -0.650277    2.316593
   6 H     1.0000    0     1.008   -3.688016    1.777293   -0.018656
   7 H     1.0000    0     1.008    3.048701   -2.445201   -1.572115
   8 H     1.0000    0     1.008    0.243776   -4.053509   -0.735959
   9 H     1.0000    0     1.008    2.138866   -2.501029    1.698794
  10 H     1.0000    0     1.008    0.091834    3.894592    0.768247
  11 H     1.0000    0     1.008    2.351873    3.243833   -1.611802
  12 H     1.0000    0     1.008    2.911516    2.058242    1.454466

--------------------------------
INTERNAL COORDINATES (ANGSTROEM)
--------------------------------
 C      0   0   0     0.000000000000     0.00000000     0.00000000
 C      1   0   0     1.514771794819     0.00000000     0.00000000
 C      1   2   0     1.517642151229   114.46668630     0.00000000
 C      1   2   3     1.514693516475   115.70362123   223.98044919
 H      2   1   3     1.110562709526   109.10790352   296.28114865
 H      2   1   3     1.107310946818   112.87151957    55.00870833
 H      2   1   3     1.104028500036   109.26350249   179.73686280
 H      3   1   2     1.110833868108   110.24625351   158.73015621
 H      3   1   2     1.105246825743   110.99139842    41.85953549
 H      3   1   2     1.106539252803   109.99625068   278.04519369
 H      4   1   2     1.106389409947   110.69980890   346.93651807
 H      4   1   2     1.113152364939   111.80486929   229.20834099
 H      4   1   2     1.109132996416   112.79414103   110.96384663

---------------------------
INTERNAL COORDINATES (A.U.)
---------------------------
 C      0   0   0     0.000000000000     0.00000000     0.00000000
 C      1   0   0     2.862503847596     0.00000000     0.00000000
 C      1   2   0     2.867928035117   114.46668630     0.00000000
 C      1   2   3     2.862355922964   115.70362123   223.98044919
 H      2   1   3     2.098659375549   109.10790352   296.28114865
 H      2   1   3     2.092514434579   112.87151957    55.00870833
 H      2   1   3     2.086311509112   109.26350249   179.73686280
 H      3   1   2     2.099171791008   110.24625351   158.73015621
 H      3   1   2     2.088613811040   110.99139842    41.85953549
 H      3   1   2     2.091056144231   109.99625068   278.04519369
 H      4   1   2     2.090772982270   110.69980890   346.93651807
 H      4   1   2     2.103553115062   111.80486929   229.20834099
 H      4   1   2     2.095957609322   112.79414103   110.96384663


Diagonalization of the overlap matrix:
Smallest eigenvalue                        ... 2.998e-03
Time for diagonalization                   ...    0.001 sec
Threshold for overlap eigenvalues          ... 1.000e-08
Number of eigenvalues below threshold      ... 0
Time for construction of square roots      ...    0.310 sec
Total time needed                          ...    0.311 sec

-------------------
DFT GRID GENERATION
-------------------

General Integration Accuracy     IntAcc      ...  4.340
Radial Grid Type                 RadialGrid  ... Gauss-Chebyshev
Angular Grid (max. acc.)         AngularGrid ... Lebedev-110
Angular grid pruning method      GridPruning ... 3 (G Style)
Weight generation scheme         WeightScheme... Becke
Basis function cutoff            BFCut       ...    1.0000e-12
Integration weight cutoff        WCut        ...    1.0000e-14
Grids for H and He will be reduced by one unit

# of grid points (after initial pruning)     ...  13770 (   0.0 sec)
# of grid points (after weights+screening)   ...  12944 (   0.0 sec)
nearest neighbour list constructed           ...    0.0 sec
Grid point re-assignment to atoms done       ...    0.0 sec
Grid point division into batches done        ...    0.0 sec
Reduced shell lists constructed in    0.1 sec

Total number of grid points                  ...    12944
Total number of batches                      ...      210
Average number of points per batch           ...       61
Average number of grid points per atom       ...      996
Average number of shells per batch           ...    37.04 (88.20%)
Average number of basis functions per batch  ...    65.96 (89.14%)
Average number of large shells per batch     ...    31.97 (86.30%)
Average number of large basis fcns per batch ...    56.41 (85.52%)
Maximum spatial batch extension              ...  20.65, 18.57, 21.28 au
Average spatial batch extension              ...   4.16,  4.06,  4.07 au

Time for grid setup =    0.881 sec

--------------
SCF ITERATIONS
--------------
ITER       Energy         Delta-E        Max-DP      RMS-DP      [F,P]     Damp
               ***  Starting incremental Fock matrix formation  ***
  0   -157.5317962906   0.000000000000 0.00188323  0.00012851  0.0144425 0.7000
  1   -157.5323007192  -0.000504428604 0.00160465  0.00011980  0.0114170 0.7000
                               ***Turning on DIIS***
  2   -157.5326963219  -0.000395602662 0.00517440  0.00032511  0.0085833 0.0000
  3   -157.5337039618  -0.001007639873 0.00309917  0.00008089  0.0016375 0.0000
  4   -157.5337217065  -0.000017744706 0.00303376  0.00007813  0.0007198 0.0000
  5   -157.5337256934  -0.000003986928 0.00053862  0.00001576  0.0002658 0.0000
  6   -157.5337261986  -0.000000505227 0.00030480  0.00000715  0.0000615 0.0000
  7   -157.5337262489  -0.000000050260 0.00003646  0.00000117  0.0000162 0.0000
  8   -157.5337262516  -0.000000002730 0.00000857  0.00000037  0.0000097 0.0000
  9   -157.5337262522  -0.000000000573 0.00000637  0.00000017  0.0000032 0.0000
 10   -157.5337262523  -0.000000000080 0.00000074  0.00000005  0.0000004 0.0000
                 **** Energy Check signals convergence ****

 Fermi smearing  (ALPHA): E(HOMO(Eh)) = -0.332039 MUE = -0.065401 gap=   6.640 eV
 Fermi smearing   (BETA): E(HOMO(Eh)) = -0.326618 MUE = -0.181470 gap=   7.813 eV

N_FOD(alpha) =  0.000000
 N_FOD(beta) =  0.000000
       N_FOD =  0.000000

               *****************************************************
               *                     SUCCESS                       *
               *           SCF CONVERGED AFTER  11 CYCLES          *
               *****************************************************

Setting up the final grid:

General Integration Accuracy     IntAcc      ...  4.670
Radial Grid Type                 RadialGrid  ... Gauss-Chebyshev
Angular Grid (max. acc.)         AngularGrid ... Lebedev-302
Angular grid pruning method      GridPruning ... 3 (G Style)
Weight generation scheme         WeightScheme... Becke
Basis function cutoff            BFCut       ...    1.0000e-12
Integration weight cutoff        WCut        ...    1.0000e-14
Grids for H and He will be reduced by one unit

# of grid points (after initial pruning)     ...  55394 (   0.0 sec)
# of grid points (after weights+screening)   ...  51354 (   0.1 sec)
nearest neighbour list constructed           ...    0.0 sec
Grid point re-assignment to atoms done       ...    0.0 sec
Grid point division into batches done        ...    0.2 sec
Reduced shell lists constructed in    0.4 sec

Total number of grid points                  ...    51354
Total number of batches                      ...      809
Average number of points per batch           ...       63
Average number of grid points per atom       ...     3950
Average number of shells per batch           ...    34.66 (82.53%)
Average number of basis functions per batch  ...    61.55 (83.17%)
Average number of large shells per batch     ...    29.33 (84.62%)
Average number of large basis fcns per batch ...    51.45 (83.59%)
Maximum spatial batch extension              ...  17.16, 19.44, 21.17 au
Average spatial batch extension              ...   2.64,  2.61,  2.60 au

Final grid set up in    0.6 sec
Final integration                            ... done (   4.3 sec)
Change in XC energy                          ...    -0.000555428
Integrated number of electrons               ...    32.999875520
Previous integrated no of electrons          ...    32.996731563
Total Energy       :         -157.53428168 Eh           -4286.72574 eV
  Last Energy change         ...   -1.1426e-11  Tolerance :   1.0000e-09
  Last MAX-Density change    ...    2.7074e-07  Tolerance :   1.0000e-08
             **** THE GBW FILE WAS UPDATED (orca3.gbw) ****
             **** DENSITY FILE WAS UPDATED (orca3.scfp) ****
             **** ENERGY FILE WAS UPDATED (orca3.en.tmp) ****
             **** THE GBW FILE WAS UPDATED (orca3.gbw) ****
             **** DENSITY FILE WAS UPDATED (orca3.scfp) ****
Total SCF time: 0 days 0 hours 1 min 22 sec 


-------------------------------------------------------------------------------
                          DFT DISPERSION CORRECTION                            
                                                                               
                              DFTD3 V3.1  Rev 1                                
                          USING Becke-Johnson damping                          
-------------------------------------------------------------------------------
-------------------------   ----------------
Dispersion correction           -0.014045212
-------------------------   ----------------


-------------------------   --------------------
FINAL SINGLE POINT ENERGY      -157.548326892211
-------------------------   --------------------

------------------------------------------------------------------------------
                         ORCA SCF GRADIENT CALCULATION
------------------------------------------------------------------------------

Gradient of the Kohn-Sham DFT energy:
Kohn-Sham wavefunction type      ... UKS
Hartree-Fock exchange scaling    ...    0.200
Number of operators              ...    2
Number of atoms                  ...   13
Basis set dimensions             ...   74
Integral neglect threshold       ... 1.0e-12
Integral primitive cutoff        ... 1.0e-14

Nuclear repulsion gradient       ... done
One Electron Gradient            ... done
Pre-screening matrix             ... done
Starting the two electron gradient:
Two electron gradient done
Exchange-correlation gradient    ... done
Dispersion correction            ... done

------------------
CARTESIAN GRADIENT
------------------

   1   C   :   -0.004575752    0.005510273   -0.034196769
   2   C   :   -0.002885637    0.001468566    0.025869799
   3   C   :    0.003312002   -0.007395167    0.023798634
   4   C   :    0.002387031   -0.004019858    0.015453795
   5   H   :    0.001252313   -0.000197707   -0.003679809
   6   H   :   -0.000475695   -0.002959769   -0.003520614
   7   H   :    0.003716737    0.000211049   -0.006218152
   8   H   :   -0.001768832    0.000090456   -0.004625374
   9   H   :   -0.000378477    0.001648400   -0.005270606
  10   H   :    0.000120358    0.003955450   -0.002107506
  11   H   :   -0.003049719   -0.000042364   -0.002219002
  12   H   :   -0.000125963    0.001424491   -0.000768942
  13   H   :    0.002471634    0.000306180   -0.002515454

Difference to translation invariance:
           :    0.0000000000    0.0000000000    0.0000000000

Norm of the cartesian gradient     ...    0.0546523441
RMS gradient                       ...    0.0087513790
MAX gradient                       ...    0.0341967689

-------
TIMINGS
-------

Total SCF gradient time            ...        3.939 sec

One electron gradient       ....       0.030 sec  (  0.8%)
Prescreening matrices       ....       0.029 sec  (  0.7%)
Two electron gradient       ....       1.297 sec  ( 32.9%)
XC gradient                 ....       2.423 sec  ( 61.5%)
------------------------------------------------------------------------------
                         ORCA GEOMETRY RELAXATION STEP
------------------------------------------------------------------------------

Reading the OPT-File                    .... done
Getting information on internals        .... done
Copying old internal coords+grads       .... done
Making the new internal coordinates     .... (new redundants).... done
Validating the new internal coordinates .... (new redundants).... done
Calculating the B-matrix                .... done
Calculating the G,G- and P matrices     .... done
Transforming gradient to internals      .... done
Projecting the internal gradient        .... done
Number of atoms                         ....  13
Number of internal coordinates          ....  51
Current Energy                          ....  -157.548326892 Eh
Current gradient norm                   ....     0.054652344 Eh/bohr
Maximum allowed component of the step   ....  0.300
Current trust radius                    ....  0.300
Updating the Hessian (BFGS)             .... done
Forming the augmented Hessian           .... done
Diagonalizing the augmented Hessian     .... done
Last element of RFO vector              ....  0.932661004
Lowest eigenvalues of augmented Hessian:
 -0.006958243  0.012006743  0.012454810  0.013053878  0.038727733
Length of the computed step             ....  0.386800780
Warning: the length of the step is outside the trust region - taking restricted step instead
The input lambda is                     ....    -0.006958
   iter:   1  x=   -0.014555  g=    7.847156 f(x)=     0.059615
   iter:   2  x=   -0.018046  g=    4.352269 f(x)=     0.015192
   iter:   3  x=   -0.018511  g=    3.473493 f(x)=     0.001616
   iter:   4  x=   -0.018518  g=    3.375919 f(x)=     0.000023
   iter:   5  x=   -0.018518  g=    3.374529 f(x)=     0.000000
   iter:   6  x=   -0.018518  g=    3.374528 f(x)=     0.000000
The output lambda is                    ....    -0.018518 (6 iterations)
The final length of the internal step   ....  0.300000000
Converting the step to cartesian space:
 Initial RMS(Int)=    0.0420084025
Transforming coordinates:
 Iter   0:  RMS(Cart)=    0.0370406509 RMS(Int)=    1.2361444321
 Iter   1:  RMS(Cart)=    0.0019089072 RMS(Int)=    0.0013331102
 Iter   2:  RMS(Cart)=    0.0000784688 RMS(Int)=    0.0000481950
 Iter   3:  RMS(Cart)=    0.0000023004 RMS(Int)=    0.0000020390
 Iter   4:  RMS(Cart)=    0.0000001293 RMS(Int)=    0.0000001059
 Iter   5:  RMS(Cart)=    0.0000000071 RMS(Int)=    0.0000000045
done
Storing new coordinates                 .... done

                                .--------------------.
          ----------------------|Geometry convergence|-------------------------
          Item                value                   Tolerance       Converged
          ---------------------------------------------------------------------
          Energy change      -0.0078081161            0.0000050000      NO
          RMS gradient        0.0031237007            0.0001000000      NO
          MAX gradient        0.0078100252            0.0003000000      NO
          RMS step            0.0420084025            0.0020000000      NO
          MAX step            0.0964675904            0.0040000000      NO
          ........................................................
          Max(Bonds)      0.0074      Max(Angles)    2.59
          Max(Dihed)        5.53      Max(Improp)    0.00
          ---------------------------------------------------------------------

The optimization has not yet converged - more geometry cycles are needed


    ---------------------------------------------------------------------------
                         Redundant Internal Coordinates
                            (Angstroem and degrees)

        Definition                    Value    dE/dq     Step     New-Value
    ----------------------------------------------------------------------------
     1. B(C   1,C   0)                1.5148  0.002584 -0.0049    1.5098   
     2. B(C   2,C   0)                1.5176  0.003587 -0.0074    1.5103   
     3. B(C   3,C   0)                1.5147  0.001287 -0.0018    1.5129   
     4. B(H   4,C   1)                1.1106  0.001478 -0.0041    1.1065   
     5. B(H   5,C   1)                1.1073 -0.002518  0.0066    1.1139   
     6. B(H   6,C   1)                1.1040 -0.000455  0.0014    1.1054   
     7. B(H   7,C   2)                1.1108  0.001507 -0.0043    1.1065   
     8. B(H   8,C   2)                1.1052  0.000106 -0.0002    1.1050   
     9. B(H   9,C   2)                1.1065 -0.002141  0.0056    1.1121   
    10. B(H  10,C   3)                1.1064  0.001103 -0.0033    1.1031   
    11. B(H  11,C   3)                1.1132  0.001119 -0.0031    1.1100   
    12. B(H  12,C   3)                1.1091  0.000079 -0.0005    1.1086   
    13. A(C   1,C   0,C   3)          115.70 -0.001915    2.10    117.81   
    14. A(C   2,C   0,C   3)          114.24 -0.001455    1.97    116.21   
    15. A(C   1,C   0,C   2)          114.47 -0.000868    1.73    116.20   
    16. A(H   4,C   1,H   5)          106.93  0.000850   -0.21    106.73   
    17. A(H   5,C   1,H   6)          111.55  0.005712   -2.59    108.96   
    18. A(H   4,C   1,H   6)          106.90  0.001708    0.49    107.39   
    19. A(C   0,C   1,H   4)          109.11 -0.005083    1.94    111.05   
    20. A(C   0,C   1,H   5)          112.87  0.004478   -1.64    111.23   
    21. A(C   0,C   1,H   6)          109.26 -0.007810    2.29    111.55   
    22. A(H   7,C   2,H   9)          108.26  0.003217   -1.09    107.17   
    23. A(C   0,C   2,H   9)          110.00 -0.001636    0.14    110.14   
    24. A(H   7,C   2,H   8)          105.78 -0.000866    1.23    107.01   
    25. A(C   0,C   2,H   8)          110.99 -0.002591    0.84    111.83   
    26. A(H   8,C   2,H   9)          111.45  0.005453   -2.42    109.03   
    27. A(C   0,C   2,H   7)          110.25 -0.003475    1.42    111.67   
    28. A(H  11,C   3,H  12)          105.14 -0.001599    0.57    105.70   
    29. A(H  10,C   3,H  12)          110.22  0.002878   -1.45    108.77   
    30. A(C   0,C   3,H  12)          112.79  0.002768   -1.03    111.76   
    31. A(H  10,C   3,H  11)          105.83 -0.000203    0.59    106.42   
    32. A(C   0,C   3,H  11)          111.80  0.000202    0.20    112.00   
    33. A(C   0,C   3,H  10)          110.70 -0.004016    1.18    111.88   
    34. D(H   6,C   1,C   0,C   2)    179.74  0.000115    2.31    182.05   
    35. D(H   4,C   1,C   0,C   2)    -63.72 -0.005090    5.04    -58.68   
    36. D(H   6,C   1,C   0,C   3)     43.72  0.005664   -4.45     39.26   
    37. D(H   5,C   1,C   0,C   2)     55.01 -0.004631    5.10     60.11   
    38. D(H   4,C   1,C   0,C   3)    160.26  0.000459   -1.73    158.53   
    39. D(H   5,C   1,C   0,C   3)    -81.01  0.000919   -1.67    -82.68   
    40. D(H   7,C   2,C   0,C   1)    158.73  0.000398   -1.21    157.52   
    41. D(H   9,C   2,C   0,C   3)     54.72 -0.004501    5.15     59.86   
    42. D(H   9,C   2,C   0,C   1)    -81.95  0.001175   -1.59    -83.54   
    43. D(H   8,C   2,C   0,C   3)    178.53 -0.000493    2.74    181.27   
    44. D(H   8,C   2,C   0,C   1)     41.86  0.005183   -3.99     37.87   
    45. D(H   7,C   2,C   0,C   3)    -64.60 -0.005278    5.53    -59.07   
    46. D(H  11,C   3,C   0,C   1)   -130.79 -0.001092    1.54   -129.26   
    47. D(H  10,C   3,C   0,C   2)   -149.18  0.001449   -3.49   -152.67   
    48. D(H  10,C   3,C   0,C   1)    -13.06 -0.003830    3.13     -9.93   
    49. D(H  12,C   3,C   0,C   2)    -25.16  0.004214   -5.25    -30.40   
    50. D(H  12,C   3,C   0,C   1)    110.96 -0.001066    1.38    112.34   
    51. D(H  11,C   3,C   0,C   2)     93.09  0.004188   -5.08     88.00   
    ----------------------------------------------------------------------------

         *************************************************************
         *                GEOMETRY OPTIMIZATION CYCLE   3            *
         *************************************************************
---------------------------------
CARTESIAN COORDINATES (ANGSTROEM)
---------------------------------
  C     -0.029092    0.022586   -0.277057
  C     -1.474107   -0.038786    0.156229
  C      0.750527   -1.264740   -0.150946
  C      0.737508    1.290481    0.028772
  H     -2.029880   -0.798921   -0.424796
  H     -1.562169   -0.326871    1.228670
  H     -1.984648    0.929278    0.000993
  H      1.628944   -1.277013   -0.823732
  H      0.134254   -2.144552   -0.410319
  H      1.130901   -1.381781    0.887498
  H      0.074266    2.094763    0.389274
[...]

             **** THE GBW FILE WAS UPDATED (orca3.gbw) ****
             **** DENSITY FILE WAS UPDATED (orca3.scfp) ****
             **** ENERGY FILE WAS UPDATED (orca3.en.tmp) ****
             **** THE GBW FILE WAS UPDATED (orca3.gbw) ****
             **** DENSITY FILE WAS UPDATED (orca3.scfp) ****
----------------
ORBITAL ENERGIES
----------------
                 SPIN UP ORBITALS
  NO   OCC          E(Eh)            E(eV) 
   0   1.0000     -10.183241      -277.1001 
   1   1.0000     -10.169149      -276.7166 
   2   1.0000     -10.169064      -276.7143 
   3   1.0000     -10.168966      -276.7116 
   4   1.0000      -0.789234       -21.4761 
   5   1.0000      -0.677193       -18.4274 
   6   1.0000      -0.677071       -18.4240 
   7   1.0000      -0.526027       -14.3139 
   8   1.0000      -0.439697       -11.9648 
   9   1.0000      -0.435273       -11.8444 
  10   1.0000      -0.435128       -11.8404 
  11   1.0000      -0.381334       -10.3766 
  12   1.0000      -0.381199       -10.3730 
  13   1.0000      -0.362830        -9.8731 
  14   1.0000      -0.342120        -9.3096 
  15   1.0000      -0.342039        -9.3074 
  16   1.0000      -0.170500        -4.6395 
  17   0.0000       0.054510         1.4833 
  18   0.0000       0.105196         2.8625 
  19   0.0000       0.105403         2.8682 
  20   0.0000       0.121010         3.2928 
  21   0.0000       0.121251         3.2994 
  22   0.0000       0.132547         3.6068 
  23   0.0000       0.156626         4.2620 
  24   0.0000       0.156782         4.2662 
  25   0.0000       0.191263         5.2045 
  26   0.0000       0.206482         5.6187 
  27   0.0000       0.278696         7.5837 
  28   0.0000       0.279554         7.6070 
  29   0.0000       0.400896        10.9089 
  30   0.0000       0.402534        10.9535 
  31   0.0000       0.438790        11.9401 
  32   0.0000       0.472926        12.8690 
  33   0.0000       0.473859        12.8944 
  34   0.0000       0.476152        12.9567 
  35   0.0000       0.613439        16.6925 
  36   0.0000       0.621141        16.9021 
  37   0.0000       0.623685        16.9713 
  38   0.0000       0.639743        17.4083 
  39   0.0000       0.647491        17.6191 
  40   0.0000       0.663916        18.0661 
  41   0.0000       0.682341        18.5674 
  42   0.0000       0.682452        18.5705 
  43   0.0000       0.705704        19.2032 
  44   0.0000       0.705773        19.2051 
  45   0.0000       0.705934        19.2094 
  46   0.0000       0.731304        19.8998 
  47   0.0000       0.732691        19.9375 
  48   0.0000       0.764449        20.8017 
  49   0.0000       0.787573        21.4309 
  50   0.0000       0.787989        21.4423 
  51   0.0000       0.842936        22.9375 
  52   0.0000       1.014165        27.5968 
  53   0.0000       1.016516        27.6608 
  54   0.0000       1.429657        38.9029 
  55   0.0000       1.430483        38.9254 
  56   0.0000       1.724423        46.9239 
  57   0.0000       1.772637        48.2359 
  58   0.0000       1.773213        48.2516 
  59   0.0000       1.777565        48.3700 
  60   0.0000       1.978251        53.8309 
  61   0.0000       1.980163        53.8830 
  62   0.0000       1.981336        53.9149 
  63   0.0000       2.041460        55.5509 
  64   0.0000       2.043447        55.6050 
  65   0.0000       2.133204        58.0474 
  66   0.0000       2.155695        58.6594 
  67   0.0000       2.176196        59.2173 
  68   0.0000       2.177091        59.2417 
  69   0.0000       2.416665        65.7608 
  70   0.0000       2.417049        65.7712 
  71   0.0000       2.483419        67.5773 
  72   0.0000       2.733267        74.3760 
  73   0.0000       2.733269        74.3760 

                 SPIN DOWN ORBITALS
  NO   OCC          E(Eh)            E(eV) 
   0   1.0000     -10.170146      -276.7437 
   1   1.0000     -10.170061      -276.7414 
   2   1.0000     -10.169966      -276.7389 
   3   1.0000     -10.168955      -276.7113 
   4   1.0000      -0.772256       -21.0142 
   5   1.0000      -0.674817       -18.3627 
   6   1.0000      -0.674712       -18.3598 
   7   1.0000      -0.508009       -13.8236 
   8   1.0000      -0.431235       -11.7345 
   9   1.0000      -0.431131       -11.7317 
  10   1.0000      -0.419825       -11.4240 
  11   1.0000      -0.375330       -10.2133 
  12   1.0000      -0.375234       -10.2106 
  13   1.0000      -0.361719        -9.8429 
  14   1.0000      -0.337278        -9.1778 
  15   1.0000      -0.337229        -9.1765 
  16   0.0000      -0.030315        -0.8249 
  17   0.0000       0.055696         1.5156 
  18   0.0000       0.106205         2.8900 
  19   0.0000       0.106473         2.8973 
  20   0.0000       0.122470         3.3326 
  21   0.0000       0.122771         3.3408 
  22   0.0000       0.141253         3.8437 
  23   0.0000       0.159676         4.3450 
  24   0.0000       0.159910         4.3514 
  25   0.0000       0.191412         5.2086 
  26   0.0000       0.224566         6.1107 
  27   0.0000       0.284911         7.7528 
  28   0.0000       0.285769         7.7762 
  29   0.0000       0.402877        10.9628 
  30   0.0000       0.404525        11.0077 
  31   0.0000       0.460451        12.5295 
  32   0.0000       0.479726        13.0540 
  33   0.0000       0.480712        13.0808 
  34   0.0000       0.492976        13.4146 
  35   0.0000       0.622496        16.9390 
  36   0.0000       0.625119        17.0103 
  37   0.0000       0.648701        17.6520 
  38   0.0000       0.649640        17.6776 
  39   0.0000       0.658184        17.9101 
  40   0.0000       0.673046        18.3145 
  41   0.0000       0.687250        18.7010 
  42   0.0000       0.687300        18.7024 
  43   0.0000       0.708020        19.2662 
  44   0.0000       0.708099        19.2684 
  45   0.0000       0.715486        19.4694 
  46   0.0000       0.734723        19.9928 
  47   0.0000       0.736045        20.0288 
  48   0.0000       0.764162        20.7939 
  49   0.0000       0.791779        21.5454 
  50   0.0000       0.792208        21.5571 
  51   0.0000       0.852175        23.1889 
  52   0.0000       1.017186        27.6790 
  53   0.0000       1.019576        27.7441 
  54   0.0000       1.451866        39.5073 
  55   0.0000       1.452734        39.5309 
  56   0.0000       1.722066        46.8598 
  57   0.0000       1.776180        48.3323 
  58   0.0000       1.776746        48.3477 
  59   0.0000       1.806396        49.1545 
  60   0.0000       1.983826        53.9827 
  61   0.0000       1.984052        53.9888 
  62   0.0000       2.004254        54.5385 
  63   0.0000       2.050369        55.7934 
  64   0.0000       2.052475        55.8507 
  65   0.0000       2.135380        58.1066 
  66   0.0000       2.154829        58.6359 
  67   0.0000       2.180080        59.3230 
  68   0.0000       2.180833        59.3435 
  69   0.0000       2.439143        66.3725 
  70   0.0000       2.439542        66.3833 
  71   0.0000       2.511516        68.3418 
  72   0.0000       2.740773        74.5802 
  73   0.0000       2.740818        74.5815 

                    ********************************
                    * MULLIKEN POPULATION ANALYSIS *
                    ********************************

------------------------------------------
FOD BASED MULLIKEN REDUCED ORBITAL CHARGES
------------------------------------------
  0 C s       :     0.000000  s :     0.000000
      pz      :     0.000000  p :     0.000000
      px      :     0.000000
      py      :     0.000000
      dz2     :     0.000000  d :     0.000000
      dxz     :     0.000000
      dyz     :     0.000000
      dx2y2   :     0.000000
      dxy     :     0.000000
  1 C s       :    -0.000000  s :    -0.000000
      pz      :     0.000000  p :     0.000000
      px      :     0.000000
      py      :     0.000000
      dz2     :     0.000000  d :     0.000000
      dxz     :     0.000000
      dyz     :     0.000000
      dx2y2   :     0.000000
      dxy     :     0.000000
  2 C s       :    -0.000000  s :    -0.000000
      pz      :     0.000000  p :     0.000000
      px      :     0.000000
      py      :     0.000000
      dz2     :     0.000000  d :     0.000000
      dxz     :     0.000000
      dyz     :     0.000000
      dx2y2   :     0.000000
      dxy     :     0.000000
  3 C s       :    -0.000000  s :    -0.000000
      pz      :     0.000000  p :     0.000000
      px      :     0.000000
      py      :     0.000000
      dz2     :     0.000000  d :     0.000000
      dxz     :     0.000000
      dyz     :     0.000000
      dx2y2   :     0.000000
      dxy     :     0.000000
  4 H s       :     0.000000  s :     0.000000
  5 H s       :     0.000000  s :     0.000000
  6 H s       :     0.000000  s :     0.000000
  7 H s       :     0.000000  s :     0.000000
  8 H s       :     0.000000  s :     0.000000
  9 H s       :     0.000000  s :     0.000000
 10 H s       :     0.000000  s :     0.000000
 11 H s       :     0.000000  s :     0.000000
 12 H s       :     0.000000  s :     0.000000


                     *******************************
                     * LOEWDIN POPULATION ANALYSIS *
                     *******************************

-------------------------------------------
LOEWDIN ATOMIC CHARGES AND SPIN POPULATIONS
-------------------------------------------
   0 C :   -0.080334    0.820228
   1 C :   -0.313221   -0.023157
   2 C :   -0.313489   -0.023157
   3 C :   -0.312315   -0.023217
   4 H :    0.113739    0.012438
   5 H :    0.112643    0.058362
   6 H :    0.113665    0.011848
   7 H :    0.113782    0.011810
   8 H :    0.113943    0.012584
   9 H :    0.112435    0.058919
  10 H :    0.113486    0.012686
  11 H :    0.113588    0.011740
  12 H :    0.112078    0.058916

----------------------------------------------------
LOEWDIN REDUCED ORBITAL CHARGES AND SPIN POPULATIONS
----------------------------------------------------
CHARGE
  0 C s       :     2.904465  s :     2.904465
      pz      :     0.991842  p :     3.083434
      px      :     1.045133
      py      :     1.046459
      dz2     :     0.008235  d :     0.092436
      dxz     :     0.011934
      dyz     :     0.009122
      dx2y2   :     0.029933
      dxy     :     0.033213
  1 C s       :     2.947051  s :     2.947051
      pz      :     1.103370  p :     3.288230
      px      :     1.076558
      py      :     1.108302
      dz2     :     0.023593  d :     0.077940
      dxz     :     0.013221
      dyz     :     0.006738
      dx2y2   :     0.013516
      dxy     :     0.020872
  2 C s       :     2.947043  s :     2.947043
      pz      :     1.106530  p :     3.288495
      px      :     1.098799
      py      :     1.083166
      dz2     :     0.010949  d :     0.077951
      dxz     :     0.018549
      dyz     :     0.016459
      dx2y2   :     0.012926
      dxy     :     0.019068
  3 C s       :     2.946852  s :     2.946852
      pz      :     1.105894  p :     3.287405
      px      :     1.099181
      py      :     1.082330
      dz2     :     0.017450  d :     0.078058
      dxz     :     0.017824
      dyz     :     0.009114
      dx2y2   :     0.014053
      dxy     :     0.019618
  4 H s       :     0.886261  s :     0.886261
  5 H s       :     0.887357  s :     0.887357
  6 H s       :     0.886335  s :     0.886335
  7 H s       :     0.886218  s :     0.886218
  8 H s       :     0.886057  s :     0.886057
  9 H s       :     0.887565  s :     0.887565
 10 H s       :     0.886514  s :     0.886514
 11 H s       :     0.886412  s :     0.886412
 12 H s       :     0.887922  s :     0.887922

SPIN
  0 C s       :     0.041763  s :     0.041763
      pz      :     0.712074  p :     0.781549
      px      :     0.043035
      py      :     0.026440
      dz2     :    -0.001110  d :    -0.003084
      dxz     :    -0.000430
      dyz     :    -0.000096
      dx2y2   :    -0.000581
      dxy     :    -0.000867
  1 C s       :    -0.005739  s :    -0.005739
      pz      :    -0.014632  p :    -0.034220
      px      :    -0.015779
      py      :    -0.003810
      dz2     :     0.007718  d :     0.016802
      dxz     :     0.007476
      dyz     :     0.000422
      dx2y2   :     0.000762
      dxy     :     0.000424
  2 C s       :    -0.005739  s :    -0.005739
      pz      :    -0.013407  p :    -0.034299
      px      :    -0.007470
      py      :    -0.013422
      dz2     :     0.000574  d :     0.016881
      dxz     :     0.004498
      dyz     :     0.009600
      dx2y2   :     0.000361
      dxy     :     0.001848
  3 C s       :    -0.005751  s :    -0.005751
      pz      :    -0.013692  p :    -0.034358
      px      :    -0.007319
      py      :    -0.013346
      dz2     :     0.003217  d :     0.016891
      dxz     :     0.005171
      dyz     :     0.006846
      dx2y2   :     0.000670
      dxy     :     0.000988
  4 H s       :     0.012438  s :     0.012438
  5 H s       :     0.058362  s :     0.058362
  6 H s       :     0.011848  s :     0.011848
  7 H s       :     0.011810  s :     0.011810
  8 H s       :     0.012584  s :     0.012584
  9 H s       :     0.058919  s :     0.058919
 10 H s       :     0.012686  s :     0.012686
 11 H s       :     0.011740  s :     0.011740
 12 H s       :     0.058916  s :     0.058916


                      *****************************
                      * MAYER POPULATION ANALYSIS *
                      *****************************

  NA   - Mulliken gross atomic population
  ZA   - Total nuclear charge
  QA   - Mulliken gross atomic charge
  VA   - Mayer's total valence
  BVA  - Mayer's bonded valence
  FA   - Mayer's free valence

  ATOM       NA         ZA         QA         VA         BVA        FA
  0 C      6.1563     6.0000    -0.1563     4.2139     3.5236     0.6904
  1 C      6.2217     6.0000    -0.2217     3.9372     3.9338     0.0035
  2 C      6.2230     6.0000    -0.2230     3.9403     3.9368     0.0035
  3 C      6.2178     6.0000    -0.2178     3.9388     3.9353     0.0035
  4 H      0.9089     1.0000     0.0911     0.9588     0.9586     0.0002
  5 H      0.9082     1.0000     0.0918     0.9490     0.9441     0.0050
  6 H      0.9086     1.0000     0.0914     0.9588     0.9586     0.0002
  7 H      0.9085     1.0000     0.0915     0.9592     0.9590     0.0002
  8 H      0.9077     1.0000     0.0923     0.9586     0.9584     0.0002
  9 H      0.9098     1.0000     0.0902     0.9489     0.9438     0.0051
 10 H      0.9093     1.0000     0.0907     0.9589     0.9587     0.0002
 11 H      0.9095     1.0000     0.0905     0.9598     0.9596     0.0002
 12 H      0.9107     1.0000     0.0893     0.9490     0.9439     0.0051

  Mayer bond orders larger than 0.100000
B(  0-C ,  1-C ) :   1.1209 B(  0-C ,  2-C ) :   1.1262 B(  0-C ,  3-C ) :   1.1243 
B(  1-C ,  4-H ) :   0.9506 B(  1-C ,  5-H ) :   0.9292 B(  1-C ,  6-H ) :   0.9510 
B(  2-C ,  7-H ) :   0.9498 B(  2-C ,  8-H ) :   0.9501 B(  2-C ,  9-H ) :   0.9288 
B(  3-C , 10-H ) :   0.9504 B(  3-C , 11-H ) :   0.9504 B(  3-C , 12-H ) :   0.9294 


-------
TIMINGS
-------

Total SCF time: 0 days 0 hours 5 min 16 sec 

Total time                  ....     316.520 sec
Sum of individual times     ....     244.750 sec  ( 77.3%)

Fock matrix formation       ....     200.296 sec  ( 63.3%)
  XC integration            ....     110.697 sec  ( 55.3% of F)
    Basis function eval.    ....       0.664 sec  (  0.6% of XC)
    Density eval.           ....       0.432 sec  (  0.4% of XC)
    XC-Functional eval.     ....       0.288 sec  (  0.3% of XC)
    XC-Potential eval.      ....       0.568 sec  (  0.5% of XC)
Diagonalization             ....       3.671 sec  (  1.2%)
Density matrix formation    ....      18.388 sec  (  5.8%)
Population analysis         ....      10.763 sec  (  3.4%)
Initial guess               ....       0.003 sec  (  0.0%)
Orbital Transformation      ....       0.000 sec  (  0.0%)
Orbital Orthonormalization  ....       0.001 sec  (  0.0%)
DIIS solution               ....       6.495 sec  (  2.1%)
Grid generation             ....       5.134 sec  (  1.6%)


-------------------------------------------------------------------------------
                          DFT DISPERSION CORRECTION                            
                                                                               
                              DFTD3 V3.1  Rev 1                                
                          USING Becke-Johnson damping                          
-------------------------------------------------------------------------------
The B3LYP functional is recognized
Active option DFTDOPT                   ...         4   

molecular C6(AA) [au] = 1133.310547 


            DFT-D V3
 parameters
 s6 scaling factor         :     1.0000 
 a1 scaling factor         :     0.3981 
 s8 scaling factor         :     1.9889 
 a2 scaling factor         :     4.4211 
 ad hoc parameters k1-k3   :    16.0000     1.3333    -4.0000 

 Edisp/kcal,au: -8.704816244430  -0.013872006202 
 E6   /kcal   :  -4.310585416 
 E8   /kcal   :  -4.394230828 
 % E8         :  50.480454781 

-------------------------   ----------------
Dispersion correction           -0.013872006
-------------------------   ----------------


-------------------------   --------------------
FINAL SINGLE POINT ENERGY      -157.556985658064
-------------------------   --------------------

                                *** OPTIMIZATION RUN DONE ***

                            ***************************************
                            *     ORCA property calculations      *
                            ***************************************

                                    ---------------------
                                    Active property flags
                                    ---------------------
   (+) Dipole Moment


------------------------------------------------------------------------------
                       ORCA ELECTRIC PROPERTIES CALCULATION
------------------------------------------------------------------------------

Dipole Moment Calculation                       ... on
Quadrupole Moment Calculation                   ... off
Polarizability Calculation                      ... off
GBWName                                         ... orca3.gbw
Electron density file                           ... orca3.scfp
The origin for moment calculation is the CENTER OF MASS  = ( 0.005726, -0.001101 -0.021098)

-------------
DIPOLE MOMENT
-------------
                                X             Y             Z
Electronic contribution:     -0.10859       0.07049      -0.59192
Nuclear contribution   :      0.12761      -0.08149       0.67979
                        -----------------------------------------
Total Dipole Moment    :      0.01901      -0.01100       0.08788
                        -----------------------------------------
Magnitude (a.u.)       :      0.09058
Magnitude (Debye)      :      0.23023



--------------------
Rotational spectrum 
--------------------
 
Rotational constants in cm-1:     0.265046     0.264638     0.143770 
Rotational constants in MHz :  7945.887133  7933.647924  4310.115324 

 Dipole components along the rotational axes: 
x,y,z [a.u.] :    -0.000471    -0.001834     0.090559 
x,y,z [Debye]:    -0.001198    -0.004662     0.230183 

 

Timings for individual modules:

Sum of individual times         ...     3984.647 sec (=  66.411 min)
GTO integral calculation        ...       75.914 sec (=   1.265 min)   1.9 %
SCF iterations                  ...     3800.157 sec (=  63.336 min)  95.4 %
SCF Gradient evaluation         ...       76.341 sec (=   1.272 min)   1.9 %
Geometry relaxation             ...       32.235 sec (=   0.537 min)   0.8 %
                             ****ORCA TERMINATED NORMALLY****
TOTAL RUN TIME: 0 days 1 hours 9 minutes 36 seconds 190 msec
