
                                 *****************
                                 * O   R   C   A *
                                 *****************

           --- An Ab Initio, DFT and Semiempirical electronic structure package ---

                  #######################################################
                  #                        -***-                        #
                  #          Department of theory and spectroscopy      #
                  #               Directorship: Frank Neese             #
                  #        Max Planck Institute fuer Kohlenforschung    #
                  #                Kaiser Wilhelm Platz 1               #
                  #                 D-45470 Muelheim/Ruhr               #
                  #                      Germany                        #
                  #                                                     #
                  #                  All rights reserved                #
                  #                        -***-                        #
                  #######################################################


                         Program Version 4.2.1 -  RELEASE  -


 With contributions from (in alphabetic order):
   Daniel Aravena         : Magnetic Suceptibility
   Michael Atanasov       : Ab Initio Ligand Field Theory (pilot matlab implementation)
   Alexander A. Auer      : GIAO ZORA, VPT2
   Ute Becker             : Parallelization
   Giovanni Bistoni       : ED, misc. LED, open-shell LED, HFLD
   Martin Brehm           : Molecular dynamics
   Dmytro Bykov           : SCF Hessian
   Vijay G. Chilkuri      : MRCI spin determinant printing, contributions to CSF-ICE
   Dipayan Datta          : RHF DLPNO-CCSD density
   Achintya Kumar Dutta   : EOM-CC, STEOM-CC
   Dmitry Ganyushin       : Spin-Orbit,Spin-Spin,Magnetic field MRCI
   Miquel Garcia          : C-PCM Hessian, Gaussian charge scheme
   Yang Guo               : DLPNO-NEVPT2, CIM, IAO-localization
   Andreas Hansen         : Spin unrestricted coupled pair/coupled cluster methods
   Benjamin Helmich-Paris : CASSCF linear response (MC-RPA)
   Lee Huntington         : MR-EOM, pCC
   Robert Izsak           : Overlap fitted RIJCOSX, COSX-SCS-MP3, EOM
   Christian Kollmar      : KDIIS, OOCD, Brueckner-CCSD(T), CCSD density
   Simone Kossmann        : Meta GGA functionals, TD-DFT gradient, OOMP2, MP2 Hessian
   Martin Krupicka        : AUTO-CI
   Lucas Lang             : DCDCAS
   Dagmar Lenk            : GEPOL surface, SMD
   Dimitrios Liakos       : Extrapolation schemes; Compound Job, initial MDCI parallelization
   Dimitrios Manganas     : Further ROCIS development; embedding schemes
   Dimitrios Pantazis     : SARC Basis sets
   Taras Petrenko         : DFT Hessian,TD-DFT gradient, ASA, ECA, R-Raman, ABS, FL, XAS/XES, NRVS
   Peter Pinski           : DLPNO-MP2, DLPNO-MP2 Gradient
   Christoph Reimann      : Effective Core Potentials
   Marius Retegan         : Local ZFS, SOC
   Christoph Riplinger    : Optimizer, TS searches, QM/MM, DLPNO-CCSD(T), (RO)-DLPNO pert. Triples
   Tobias Risthaus        : Range-separated hybrids, TD-DFT gradient, RPA, STAB
   Michael Roemelt        : Original ROCIS implementation
   Masaaki Saitow         : Open-shell DLPNO-CCSD energy and density
   Barbara Sandhoefer     : DKH picture change effects
   Avijit Sen             : IP-ROCIS
   Kantharuban Sivalingam : CASSCF convergence, NEVPT2, FIC-MRCI
   Bernardo de Souza      : ESD, SOC TD-DFT
   Georgi Stoychev        : AutoAux, RI-MP2 NMR
   Willem Van den Heuvel  : Paramagnetic NMR
   Boris Wezisla          : Elementary symmetry handling
   Frank Wennmohs         : Technical directorship


 We gratefully acknowledge several colleagues who have allowed us to
 interface, adapt or use parts of their codes:
   Stefan Grimme, W. Hujo, H. Kruse,             : VdW corrections, initial TS optimization,
                  C. Bannwarth                     DFT functionals, gCP, sTDA/sTD-DF
   Ed Valeev, F. Pavosevic, A. Kumar             : LibInt (2-el integral package), F12 methods
   Garnet Chan, S. Sharma, J. Yang, R. Olivares  : DMRG
   Ulf Ekstrom                                   : XCFun DFT Library
   Mihaly Kallay                                 : mrcc  (arbitrary order and MRCC methods)
   Andreas Klamt, Michael Diedenhofen            : otool_cosmo (COSMO solvation model)
   Jiri Pittner, Ondrej Demel                    : Mk-CCSD
   Frank Weinhold                                : gennbo (NPA and NBO analysis)
   Christopher J. Cramer and Donald G. Truhlar   : smd solvation model
   Lars Goerigk                                  : TD-DFT with DH, B97 family of functionals
   V. Asgeirsson, H. Jonsson                     : NEB implementation
   FAccTs GmbH                                   : IRC, NEB, NEB-TS, Multilevel, MM, QM/MM, CI optimization
   S Lehtola, MJT Oliveira, MAL Marques          : LibXC Library


 Your calculation uses the libint2 library for the computation of 2-el integrals
 For citations please refer to: http://libint.valeyev.net

 Your ORCA version has been built with support for libXC version: 4.2.3
 For citations please refer to: https://tddft.org/programs/libxc/

 This ORCA versions uses:
   CBLAS   interface :  Fast vector & matrix operations
   LAPACKE interface :  Fast linear algebra routines
   SCALAPACK package :  Parallel linear algebra routines


Your calculation utilizes the atom-pairwise dispersion correction
with the Becke-Johnson damping scheme (D3BJ)
Cite in your paper:
S.Grimme, S.Ehrlich, L.Goerigk, J Comput Chem, (2011), 32, 1456–1465 
S.Grimme, J.Antony, S.Ehrlich and H.Krieg, J.Chem.Phys., 132, (2010), 154104 
   

----- Orbital basis set information -----
Your calculation utilizes the basis: def2-SV(P)
   F. Weigend and R. Ahlrichs, Phys. Chem. Chem. Phys. 7, 3297 (2005).

----- AuxJ basis set information -----
Your calculation utilizes the auxiliary basis: def2/J
   F. Weigend, Phys. Chem. Chem. Phys. 8, 1057 (2006).

================================================================================
                                        WARNINGS
                       Please study these warnings very carefully!
================================================================================


WARNING: Geometry Optimization
  ===> : Switching off AutoStart
         For restart on a previous wavefunction, please use MOREAD

INFO   : the flag for use of LIBINT has been found!

================================================================================
                                       INPUT FILE
================================================================================
NAME = orca5.inp
|  1> ! UKS B3LYP def2-SV(P) def2/J D3BJ Opt
|  2> %scf Convergence VeryTight
|  3> SmearTemp 2000
|  4> maxiter 500
|  5> end
|  6> *xyz 0 2
|  7> C -0.013801 0.075577 0.399739
|  8> C -0.348355 1.386235 -0.271444
|  9> C 1.360581 -0.419639 0.068919
| 10> C -1.012493 -0.978134 -0.044105
| 11> H 0.184781 2.224524 0.242874
| 12> H -1.452313 1.513981 -0.137465
| 13> H -0.107453 1.367219 -1.359916
| 14> H 1.359594 -1.460325 -0.340495
| 15> H 1.93323 -0.481087 1.029512
| 16> H 1.920686 0.247782 -0.614047
| 17> H -0.586168 -1.454504 -0.942256
| 18> H -1.091176 -1.764691 0.733695
| 19> H -1.960313 -0.467155 -0.259917
| 20> *
| 21> 
| 22>                          ****END OF INPUT****
================================================================================

                       *****************************
                       * Geometry Optimization Run *
                       *****************************

Geometry optimization settings:
Update method            Update   .... BFGS
Choice of coordinates    CoordSys .... Z-matrix Internals
Initial Hessian          InHess   .... Almoef's Model

Convergence Tolerances:
Energy Change            TolE     ....  5.0000e-06 Eh
Max. Gradient            TolMAXG  ....  3.0000e-04 Eh/bohr
RMS Gradient             TolRMSG  ....  1.0000e-04 Eh/bohr
Max. Displacement        TolMAXD  ....  4.0000e-03 bohr
RMS Displacement         TolRMSD  ....  2.0000e-03 bohr
Strict Convergence                ....  False
------------------------------------------------------------------------------
                        ORCA OPTIMIZATION COORDINATE SETUP
------------------------------------------------------------------------------

The optimization will be done in new redundant internal coordinates
Making redundant internal coordinates   ...  (new redundants) done
Evaluating the initial hessian          ...  (Almloef) done
Evaluating the coordinates              ...  done
Calculating the B-matrix                .... done
Calculating the G-matrix                .... done
Diagonalizing the G-matrix              .... done
The first mode is                       ....   18
The number of degrees of freedom        ....   33

    -----------------------------------------------------------------
                    Redundant Internal Coordinates


    -----------------------------------------------------------------
         Definition                    Initial Value    Approx d2E/dq
    -----------------------------------------------------------------
      1. B(C   1,C   0)                  1.5100         0.401988   
      2. B(C   2,C   0)                  1.4979         0.420381   
      3. B(C   3,C   0)                  1.5181         0.390239   
      4. B(H   4,C   1)                  1.1187         0.324069   
      5. B(H   5,C   1)                  1.1194         0.323268   
      6. B(H   6,C   1)                  1.1150         0.328533   
      7. B(H   7,C   2)                  1.1183         0.324515   
      8. B(H   8,C   2)                  1.1200         0.322500   
      9. B(H   9,C   2)                  1.1071         0.338208   
     10. B(H  10,C   3)                  1.1024         0.344024   
     11. B(H  11,C   3)                  1.1090         0.335848   
     12. B(H  12,C   3)                  1.0982         0.349418   
     13. A(C   1,C   0,C   3)          109.0713         0.370710   
     14. A(C   2,C   0,C   3)          108.0331         0.373577   
     15. A(C   1,C   0,C   2)          113.0839         0.375495   
     16. A(H   4,C   1,H   5)          109.2361         0.281325   
     17. A(H   5,C   1,H   6)          109.3828         0.281922   
     18. A(H   4,C   1,H   6)          111.0162         0.282030   
     19. A(C   0,C   1,H   4)          109.9053         0.322614   
     20. A(C   0,C   1,H   5)          105.3287         0.322483   
     21. A(C   0,C   1,H   6)          111.7922         0.323339   
     22. A(H   7,C   2,H   9)          109.6099         0.283363   
     23. A(C   0,C   2,H   9)          113.6506         0.327284   
     24. A(H   7,C   2,H   8)          105.2708         0.281282   
     25. A(C   0,C   2,H   8)          107.3285         0.324733   
     26. A(H   8,C   2,H   9)          107.6678         0.283089   
     27. A(C   0,C   2,H   7)          112.8120         0.325065   
     28. A(H  11,C   3,H  12)          113.9917         0.286330   
     29. A(H  10,C   3,H  12)          112.0067         0.287407   
     30. A(C   0,C   3,H  12)          107.5940         0.325040   
     31. A(H  10,C   3,H  11)          106.9994         0.285636   
     32. A(C   0,C   3,H  11)          109.5064         0.322934   
     33. A(C   0,C   3,H  10)          106.4819         0.324211   
     34. D(H   6,C   1,C   0,C   2)     48.5849         0.011987   
     35. D(H   4,C   1,C   0,C   2)    -75.1635         0.011987   
     36. D(H   6,C   1,C   0,C   3)    -71.6403         0.011987   
     37. D(H   5,C   1,C   0,C   2)    167.2832         0.011987   
     38. D(H   4,C   1,C   0,C   3)    164.6113         0.011987   
     39. D(H   5,C   1,C   0,C   3)     47.0579         0.011987   
     40. D(H   7,C   2,C   0,C   1)   -125.5291         0.013067   
     41. D(H   9,C   2,C   0,C   3)    120.8558         0.013067   
     42. D(H   9,C   2,C   0,C   1)      0.0396         0.013067   
     43. D(H   8,C   2,C   0,C   3)   -120.2154         0.013067   
     44. D(H   8,C   2,C   0,C   1)    118.9684         0.013067   
     45. D(H   7,C   2,C   0,C   3)     -4.7129         0.013067   
     46. D(H  11,C   3,C   0,C   1)   -154.2688         0.011329   
     47. D(H  10,C   3,C   0,C   2)    -32.9132         0.011329   
     48. D(H  10,C   3,C   0,C   1)     90.3737         0.011329   
     49. D(H  12,C   3,C   0,C   2)   -153.1629         0.011329   
     50. D(H  12,C   3,C   0,C   1)    -29.8759         0.011329   
     51. D(H  11,C   3,C   0,C   2)     82.4443         0.011329   
    -----------------------------------------------------------------

Number of atoms                         .... 13
Number of degrees of freedom            .... 51

         *************************************************************
         *                GEOMETRY OPTIMIZATION CYCLE   1            *
         *************************************************************
---------------------------------
CARTESIAN COORDINATES (ANGSTROEM)
---------------------------------
  C     -0.013801    0.075577    0.399739
  C     -0.348355    1.386235   -0.271444
  C      1.360581   -0.419639    0.068919
  C     -1.012493   -0.978134   -0.044105
  H      0.184781    2.224524    0.242874
  H     -1.452313    1.513981   -0.137465
  H     -0.107453    1.367219   -1.359916
  H      1.359594   -1.460325   -0.340495
  H      1.933230   -0.481087    1.029512
  H      1.920686    0.247782   -0.614047
  H     -0.586168   -1.454504   -0.942256
  H     -1.091176   -1.764691    0.733695
  H     -1.960313   -0.467155   -0.259917

----------------------------
CARTESIAN COORDINATES (A.U.)
----------------------------
  NO LB      ZA    FRAG     MASS         X           Y           Z
   0 C     6.0000    0    12.011   -0.026080    0.142820    0.755397
   1 C     6.0000    0    12.011   -0.658296    2.619605   -0.512955
   2 C     6.0000    0    12.011    2.571125   -0.793003    0.130238
   3 C     6.0000    0    12.011   -1.913334   -1.848405   -0.083346
   4 H     1.0000    0     1.008    0.349185    4.203741    0.458965
   5 H     1.0000    0     1.008   -2.744474    2.861009   -0.259771
   6 H     1.0000    0     1.008   -0.203057    2.583669   -2.569869
   7 H     1.0000    0     1.008    2.569260   -2.759614   -0.643442
   8 H     1.0000    0     1.008    3.653275   -0.909123    1.945496
   9 H     1.0000    0     1.008    3.629571    0.468240   -1.160381
  10 H     1.0000    0     1.008   -1.107697   -2.748614   -1.780606
  11 H     1.0000    0     1.008   -2.062024   -3.334783    1.386483
  12 H     1.0000    0     1.008   -3.704455   -0.882795   -0.491172

--------------------------------
INTERNAL COORDINATES (ANGSTROEM)
--------------------------------
 C      0   0   0     0.000000000000     0.00000000     0.00000000
 C      1   0   0     1.510045493145     0.00000000     0.00000000
 C      1   2   0     1.497867364282   113.08392284     0.00000000
 C      1   2   3     1.518120574500   109.07125986   239.77476433
 H      2   1   3     1.118698103664   109.90533233   284.83650652
 H      2   1   3     1.119371555258   105.32865410   167.28318449
 H      2   1   3     1.114973845722   111.79223283    48.58492715
 H      3   1   2     1.118323811855   112.81196778   234.47090611
 H      3   1   2     1.120018591611   107.32852447   118.96839286
 H      3   1   2     1.107073149987   113.65058066     0.03958549
 H      4   1   2     1.102432130032   106.48188855    90.37374681
 H      4   1   2     1.108979606998   109.50637301   205.73123915
 H      4   1   2     1.098197209150   107.59398317   330.12405024

---------------------------
INTERNAL COORDINATES (A.U.)
---------------------------
 C      0   0   0     0.000000000000     0.00000000     0.00000000
 C      1   0   0     2.853572431807     0.00000000     0.00000000
 C      1   2   0     2.830559103431   113.08392284     0.00000000
 C      1   2   3     2.868832124077   109.07125986   239.77476433
 H      2   1   3     2.114033042462   109.90533233   284.83650652
 H      2   1   3     2.115305681539   105.32865410   167.28318449
 H      2   1   3     2.106995214899   111.79223283    48.58492715
 H      3   1   2     2.113325733448   112.81196778   234.47090611
 H      3   1   2     2.116528403045   107.32852447   118.96839286
 H      3   1   2     2.092065063693   113.65058066     0.03958549
 H      4   1   2     2.083294806995   106.48188855    90.37374681
 H      4   1   2     2.095667745330   109.50637301   205.73123915
 H      4   1   2     2.075291966330   107.59398317   330.12405024

---------------------
BASIS SET INFORMATION
---------------------
There are 2 groups of distinct atoms

 Group   1 Type C   : 7s4p1d contracted to 3s2p1d pattern {511/31/1}
 Group   2 Type H   : 4s contracted to 2s pattern {31}

Atom   0C    basis set group =>   1
Atom   1C    basis set group =>   1
Atom   2C    basis set group =>   1
Atom   3C    basis set group =>   1
Atom   4H    basis set group =>   2
Atom   5H    basis set group =>   2
Atom   6H    basis set group =>   2
Atom   7H    basis set group =>   2
Atom   8H    basis set group =>   2
Atom   9H    basis set group =>   2
Atom  10H    basis set group =>   2
Atom  11H    basis set group =>   2
Atom  12H    basis set group =>   2
---------------------------------
AUXILIARY/J BASIS SET INFORMATION
---------------------------------
There are 2 groups of distinct atoms

 Group   1 Type C   : 12s5p4d2f1g contracted to 6s4p3d1f1g pattern {711111/2111/211/2/1}
 Group   2 Type H   : 5s2p1d contracted to 3s1p1d pattern {311/2/1}

Atom   0C    basis set group =>   1
Atom   1C    basis set group =>   1
Atom   2C    basis set group =>   1
Atom   3C    basis set group =>   1
Atom   4H    basis set group =>   2
Atom   5H    basis set group =>   2
Atom   6H    basis set group =>   2
Atom   7H    basis set group =>   2
Atom   8H    basis set group =>   2
Atom   9H    basis set group =>   2
Atom  10H    basis set group =>   2
Atom  11H    basis set group =>   2
Atom  12H    basis set group =>   2
------------------------------------------------------------------------------
                           ORCA GTO INTEGRAL CALCULATION
------------------------------------------------------------------------------

                         BASIS SET STATISTICS AND STARTUP INFO

 # of primitive gaussian shells          ...   84
 # of primitive gaussian functions       ...  132
 # of contracted shells                  ...   42
 # of contracted basis functions         ...   74
 Highest angular momentum                ...    2
 Maximum contraction depth               ...    5
 Integral package used                   ... LIBINT
 Integral threshhold            Thresh   ...  1.000e-12
 Primitive cut-off              TCut     ...  1.000e-14


------------------------------ INTEGRAL EVALUATION ----------------------------


 * One electron integrals 
 Pre-screening matrix                    ... done
 Shell pair data                         ... done (   0.000 sec)

-------------------------------------------------------------------------------
                                 ORCA SCF
-------------------------------------------------------------------------------

------------
SCF SETTINGS
------------
Hamiltonian:
 Density Functional     Method          .... DFT(GTOs)
 Exchange Functional    Exchange        .... B88
   X-Alpha parameter    XAlpha          ....  0.666667
   Becke's b parameter  XBeta           ....  0.004200
 Correlation Functional Correlation     .... LYP
 LDA part of GGA corr.  LDAOpt          .... VWN-5
 Gradients option       PostSCFGGA      .... off
 Hybrid DFT is turned on
   Fraction HF Exchange ScalHFX         ....  0.200000
   Scaling of DF-GGA-X  ScalDFX         ....  0.720000
   Scaling of DF-GGA-C  ScalDFC         ....  0.810000
   Scaling of DF-LDA-C  ScalLDAC        ....  1.000000
   Perturbative correction              ....  0.000000
   Density functional embedding theory  .... OFF
   NL short-range parameter             ....  4.800000


General Settings:
 Integral files         IntName         .... orca5
 Hartree-Fock type      HFTyp           .... UHF
 Total Charge           Charge          ....    0
 Multiplicity           Mult            ....    2
 Number of Electrons    NEL             ....   33
 Basis Dimension        Dim             ....   74
 Nuclear Repulsion      ENuc            ....    126.6620283227 Eh

Convergence Acceleration:
 DIIS                   CNVDIIS         .... on
   Start iteration      DIISMaxIt       ....    12
   Startup error        DIISStart       ....  0.200000
   # of expansion vecs  DIISMaxEq       ....     5
   Bias factor          DIISBfac        ....   1.050
   Max. coefficient     DIISMaxC        ....  10.000
 Newton-Raphson         CNVNR           .... off
 SOSCF                  CNVSOSCF        .... off
 Level Shifting         CNVShift        .... on
   Level shift para.    LevelShift      ....    0.2500
   Turn off err/grad.   ShiftErr        ....    0.0010
 Zerner damping         CNVZerner       .... off
 Static damping         CNVDamp         .... on
   Fraction old density DampFac         ....    0.7000
   Max. Damping (<1)    DampMax         ....    0.9800
   Min. Damping (>=0)   DampMin         ....    0.0000
   Turn off err/grad.   DampErr         ....    0.1000
 Fernandez-Rico         CNVRico         .... off

SCF Procedure:
 Maximum # iterations   MaxIter         ....   500
 SCF integral mode      SCFMode         .... Direct
   Integral package                     .... LIBINT
 Reset frequency        DirectResetFreq ....    20
 Integral Threshold     Thresh          ....  1.000e-12 Eh
 Primitive CutOff       TCut            ....  1.000e-14 Eh

Convergence Tolerance:
 Convergence Check Mode ConvCheckMode   .... Total+1el-Energy
 Convergence forced     ConvForced      .... 0
 Energy Change          TolE            ....  1.000e-09 Eh
 1-El. energy change                    ....  1.000e-06 Eh
 DIIS Error             TolErr          ....  1.000e-08


Diagonalization of the overlap matrix:
Smallest eigenvalue                        ... 1.958e-03
Time for diagonalization                   ...    0.001 sec
Threshold for overlap eigenvalues          ... 1.000e-08
Number of eigenvalues below threshold      ... 0
Time for construction of square roots      ...    0.347 sec
Total time needed                          ...    0.348 sec

-------------------
DFT GRID GENERATION
-------------------

General Integration Accuracy     IntAcc      ...  4.340
Radial Grid Type                 RadialGrid  ... Gauss-Chebyshev
Angular Grid (max. acc.)         AngularGrid ... Lebedev-110
Angular grid pruning method      GridPruning ... 3 (G Style)
Weight generation scheme         WeightScheme... Becke
Basis function cutoff            BFCut       ...    1.0000e-12
Integration weight cutoff        WCut        ...    1.0000e-14
Grids for H and He will be reduced by one unit

# of grid points (after initial pruning)     ...  13770 (   0.0 sec)
# of grid points (after weights+screening)   ...  12875 (   0.0 sec)
nearest neighbour list constructed           ...    0.0 sec
Grid point re-assignment to atoms done       ...    0.0 sec
Grid point division into batches done        ...    0.0 sec
Reduced shell lists constructed in    0.1 sec

Total number of grid points                  ...    12875
Total number of batches                      ...      208
Average number of points per batch           ...       61
Average number of grid points per atom       ...      990
Average number of shells per batch           ...    37.31 (88.84%)
Average number of basis functions per batch  ...    66.47 (89.82%)
Average number of large shells per batch     ...    32.64 (87.48%)
Average number of large basis fcns per batch ...    58.00 (87.26%)
Maximum spatial batch extension              ...  21.16, 24.67, 20.48 au
Average spatial batch extension              ...   4.13,  4.09,  4.07 au

Time for grid setup =    1.393 sec

------------------------------
INITIAL GUESS: MODEL POTENTIAL
------------------------------
Loading Hartree-Fock densities                     ... done
Calculating cut-offs                               ... done
Setting up the integral package                    ... done
Initializing the effective Hamiltonian             ... done
Starting the Coulomb interaction                   ... done (   0.0 sec)
Reading the grid                                   ... done
Mapping shells                                     ... done
Starting the XC term evaluation                    ... done (   0.1 sec)
  promolecular density results
     # of electrons  =     32.997186250
     EX              =    -23.184956395
     EC              =     -1.032093957
     EX+EC           =    -24.217050352
Transforming the Hamiltonian                       ... done (   0.1 sec)
Diagonalizing the Hamiltonian                      ... done (   0.0 sec)
Back transforming the eigenvectors                 ... done (   0.0 sec)
Now organizing SCF variables                       ... done
                      ------------------
                      INITIAL GUESS DONE (   1.7 sec)
                      ------------------
--------------
SCF ITERATIONS
--------------
ITER       Energy         Delta-E        Max-DP      RMS-DP      [F,P]     Damp
               ***  Starting incremental Fock matrix formation  ***
  0   -157.3535282014   0.000000000000 0.04343088  0.00228031  0.1701816 0.7000
  1   -157.4283831705  -0.074854969073 0.02700308  0.00165969  0.0882473 0.7000
                               ***Turning on DIIS***
  2   -157.4586084476  -0.030225277077 0.04064200  0.00269367  0.0330451 0.0000
  3   -157.4989247764  -0.040316328821 0.02015678  0.00118767  0.0488291 0.0000
  4   -157.5125931402  -0.013668363814 0.00399531  0.00035476  0.0107814 0.0000
  5   -157.5133728223  -0.000779682123 0.00186268  0.00013613  0.0021827 0.0000
  6   -157.5134327314  -0.000059909096 0.00142545  0.00008702  0.0005205 0.0000
  7   -157.5134423335  -0.000009602109 0.00036689  0.00001272  0.0002102 0.0000
  8   -157.5134428306  -0.000000497009 0.00018039  0.00000510  0.0001160 0.0000
  9   -157.5134429873  -0.000000156792 0.00003559  0.00000181  0.0000169 0.0000
 10   -157.5134430016  -0.000000014217 0.00001423  0.00000063  0.0000048 0.0000
 11   -157.5134430037  -0.000000002183 0.00000666  0.00000030  0.0000013 0.0000
 12   -157.5134430042  -0.000000000492 0.00000189  0.00000010  0.0000011 0.0000
 13   -157.5134430043  -0.000000000078 0.00000180  0.00000009  0.0000005 0.0000
                 **** Energy Check signals convergence ****

 Fermi smearing  (ALPHA): E(HOMO(Eh)) = -0.319305 MUE = -0.072242 gap=   7.082 eV
 Fermi smearing   (BETA): E(HOMO(Eh)) = -0.313333 MUE = -0.181809 gap=   7.128 eV

N_FOD(alpha) =  0.000000
 N_FOD(beta) =  0.000000
       N_FOD =  0.000000

               *****************************************************
               *                     SUCCESS                       *
               *           SCF CONVERGED AFTER  14 CYCLES          *
               *****************************************************

Setting up the final grid:

General Integration Accuracy     IntAcc      ...  4.670
Radial Grid Type                 RadialGrid  ... Gauss-Chebyshev
Angular Grid (max. acc.)         AngularGrid ... Lebedev-302
Angular grid pruning method      GridPruning ... 3 (G Style)
Weight generation scheme         WeightScheme... Becke
Basis function cutoff            BFCut       ...    1.0000e-12
Integration weight cutoff        WCut        ...    1.0000e-14
Grids for H and He will be reduced by one unit

# of grid points (after initial pruning)     ...  55394 (   0.0 sec)
# of grid points (after weights+screening)   ...  51175 (   0.1 sec)
nearest neighbour list constructed           ...    0.0 sec
Grid point re-assignment to atoms done       ...    0.0 sec
Grid point division into batches done        ...    0.2 sec
Reduced shell lists constructed in    0.4 sec

Total number of grid points                  ...    51175
Total number of batches                      ...      806
Average number of points per batch           ...       63
Average number of grid points per atom       ...     3937
Average number of shells per batch           ...    35.01 (83.36%)
Average number of basis functions per batch  ...    62.21 (84.07%)
Average number of large shells per batch     ...    29.91 (85.44%)
Average number of large basis fcns per batch ...    52.77 (84.81%)
Maximum spatial batch extension              ...  21.21, 16.43, 21.35 au
Average spatial batch extension              ...   2.59,  2.60,  2.59 au

Final grid set up in    1.0 sec
Final integration                            ... done (   2.6 sec)
Change in XC energy                          ...    -0.000092862
Integrated number of electrons               ...    33.000082180
Previous integrated no of electrons          ...    33.000621264

----------------
TOTAL SCF ENERGY
----------------

Total Energy       :         -157.51353587 Eh           -4286.16122 eV

Components:
Nuclear Repulsion  :          126.66202832 Eh            3446.64901 eV
Electronic Energy  :         -284.17556419 Eh           -7732.81023 eV
One Electron Energy:         -460.89354247 Eh          -12541.55089 eV
Two Electron Energy:          176.71797828 Eh            4808.74066 eV

Virial components:
Potential Energy   :         -313.36967593 Eh           -8527.22240 eV
Kinetic Energy     :          155.85614006 Eh            4241.06118 eV
Virial Ratio       :            2.01063414


DFT components:
N(Alpha)           :       17.000044317677 electrons
N(Beta)            :       16.000037862814 electrons
N(Total)           :       33.000082180491 electrons
E(X)               :      -18.878738238189 Eh       
E(C)               :       -1.222132498009 Eh       
E(XC)              :      -20.100870736198 Eh       
DFET-embed. en.    :        0.000000000000 Eh       

---------------
SCF CONVERGENCE
---------------

  Last Energy change         ...   -2.6120e-11  Tolerance :   1.0000e-09
  Last MAX-Density change    ...    2.6883e-07  Tolerance :   1.0000e-08
  Last RMS-Density change    ...    1.4873e-08  Tolerance :   1.0000e-09
  Last DIIS Error            ...    1.6486e-07  Tolerance :   1.0000e-08

             **** THE GBW FILE WAS UPDATED (orca5.gbw) ****
             **** DENSITY FILE WAS UPDATED (orca5.scfp) ****
             **** ENERGY FILE WAS UPDATED (orca5.en.tmp) ****
             **** THE GBW FILE WAS UPDATED (orca5.gbw) ****
             **** DENSITY FILE WAS UPDATED (orca5.scfp) ****
----------------
ORBITAL ENERGIES
----------------
                 SPIN UP ORBITALS
  NO   OCC          E(Eh)            E(eV) 
   0   1.0000     -10.189311      -277.2652 
   1   1.0000     -10.171769      -276.7879 
   2   1.0000     -10.167949      -276.6840 
   3   1.0000     -10.165982      -276.6304 
   4   1.0000      -0.800325       -21.7780 
   5   1.0000      -0.675433       -18.3795 
   6   1.0000      -0.669726       -18.2242 
   7   1.0000      -0.522516       -14.2184 
   8   1.0000      -0.449544       -12.2327 
   9   1.0000      -0.442560       -12.0427 
  10   1.0000      -0.427998       -11.6464 
  11   1.0000      -0.395109       -10.7514 
  12   1.0000      -0.383872       -10.4457 
  13   1.0000      -0.354847        -9.6559 
  14   1.0000      -0.329815        -8.9747 
  15   1.0000      -0.319305        -8.6887 
  16   1.0000      -0.202365        -5.5066 
  17   0.0000       0.057880         1.5750 
  18   0.0000       0.103714         2.8222 
  19   0.0000       0.109513         2.9800 
  20   0.0000       0.114823         3.1245 
  21   0.0000       0.123601         3.3633 
  22   0.0000       0.129784         3.5316 
  23   0.0000       0.135355         3.6832 
  24   0.0000       0.160869         4.3775 
  25   0.0000       0.188499         5.1293 
  26   0.0000       0.204579         5.5669 
  27   0.0000       0.257954         7.0193 
  28   0.0000       0.281566         7.6618 
  29   0.0000       0.424023        11.5383 
  30   0.0000       0.432785        11.7767 
  31   0.0000       0.444607        12.0984 
  32   0.0000       0.473831        12.8936 
  33   0.0000       0.503556        13.7025 
  34   0.0000       0.511024        13.9057 
  35   0.0000       0.573959        15.6182 
  36   0.0000       0.590635        16.0720 
  37   0.0000       0.627836        17.0843 
  38   0.0000       0.657757        17.8985 
  39   0.0000       0.660375        17.9697 
  40   0.0000       0.680731        18.5236 
  41   0.0000       0.683999        18.6126 
  42   0.0000       0.691514        18.8170 
  43   0.0000       0.700363        19.0578 
  44   0.0000       0.709883        19.3169 
  45   0.0000       0.717615        19.5273 
  46   0.0000       0.728594        19.8261 
  47   0.0000       0.733231        19.9522 
  48   0.0000       0.741056        20.1652 
  49   0.0000       0.754288        20.5252 
  50   0.0000       0.774605        21.0781 
  51   0.0000       0.901565        24.5328 
  52   0.0000       0.961969        26.1765 
  53   0.0000       0.981554        26.7094 
  54   0.0000       1.397415        38.0256 
  55   0.0000       1.422608        38.7111 
  56   0.0000       1.746062        47.5128 
  57   0.0000       1.760521        47.9062 
  58   0.0000       1.797228        48.9051 
  59   0.0000       1.818703        49.4894 
  60   0.0000       1.903369        51.7933 
  61   0.0000       1.917605        52.1807 
  62   0.0000       2.001186        54.4550 
  63   0.0000       2.061284        56.0904 
  64   0.0000       2.096657        57.0529 
  65   0.0000       2.125625        57.8412 
  66   0.0000       2.149448        58.4895 
  67   0.0000       2.161888        58.8280 
  68   0.0000       2.198055        59.8121 
  69   0.0000       2.420721        65.8712 
  70   0.0000       2.432017        66.1786 
  71   0.0000       2.449281        66.6483 
  72   0.0000       2.690158        73.2029 
  73   0.0000       2.713448        73.8367 

                 SPIN DOWN ORBITALS
  NO   OCC          E(Eh)            E(eV) 
   0   1.0000     -10.174402      -276.8595 
   1   1.0000     -10.172092      -276.7967 
   2   1.0000     -10.168319      -276.6940 
   3   1.0000     -10.166324      -276.6398 
   4   1.0000      -0.785692       -21.3798 
   5   1.0000      -0.672811       -18.3081 
   6   1.0000      -0.667098       -18.1527 
   7   1.0000      -0.504465       -13.7272 
   8   1.0000      -0.442034       -12.0284 
   9   1.0000      -0.429611       -11.6903 
  10   1.0000      -0.425362       -11.5747 
  11   1.0000      -0.388841       -10.5809 
  12   1.0000      -0.378773       -10.3069 
  13   1.0000      -0.353374        -9.6158 
  14   1.0000      -0.323804        -8.8112 
  15   1.0000      -0.313333        -8.5262 
  16   0.0000      -0.051401        -1.3987 
  17   0.0000       0.060602         1.6491 
  18   0.0000       0.105127         2.8607 
  19   0.0000       0.110124         2.9966 
  20   0.0000       0.116957         3.1826 
  21   0.0000       0.126240         3.4352 
  22   0.0000       0.133729         3.6389 
  23   0.0000       0.139919         3.8074 
  24   0.0000       0.164043         4.4638 
  25   0.0000       0.189487         5.1562 
  26   0.0000       0.212471         5.7816 
  27   0.0000       0.269097         7.3225 
  28   0.0000       0.291723         7.9382 
  29   0.0000       0.428951        11.6723 
  30   0.0000       0.438128        11.9221 
  31   0.0000       0.449906        12.2426 
  32   0.0000       0.480400        13.0724 
  33   0.0000       0.511710        13.9243 
  34   0.0000       0.556980        15.1562 
  35   0.0000       0.590389        16.0653 
  36   0.0000       0.598907        16.2971 
  37   0.0000       0.634991        17.2790 
  38   0.0000       0.659579        17.9481 
  39   0.0000       0.664046        18.0696 
  40   0.0000       0.684910        18.6374 
  41   0.0000       0.690144        18.7798 
  42   0.0000       0.694076        18.8868 
  43   0.0000       0.701189        19.0803 
  44   0.0000       0.713701        19.4208 
  45   0.0000       0.721331        19.6284 
  46   0.0000       0.734317        19.9818 
  47   0.0000       0.735794        20.0220 
  48   0.0000       0.743111        20.2211 
  49   0.0000       0.759773        20.6745 
  50   0.0000       0.783155        21.3107 
  51   0.0000       0.911365        24.7995 
  52   0.0000       0.965522        26.2732 
  53   0.0000       0.988150        26.8889 
  54   0.0000       1.413069        38.4516 
  55   0.0000       1.438020        39.1305 
  56   0.0000       1.760517        47.9061 
  57   0.0000       1.781692        48.4823 
  58   0.0000       1.802710        49.0542 
  59   0.0000       1.825099        49.6635 
  60   0.0000       1.913009        52.0556 
  61   0.0000       1.931266        52.5524 
  62   0.0000       2.015704        54.8501 
  63   0.0000       2.070382        56.3380 
  64   0.0000       2.099873        57.1405 
  65   0.0000       2.126233        57.8577 
  66   0.0000       2.150719        58.5240 
  67   0.0000       2.164104        58.8883 
  68   0.0000       2.202215        59.9253 
  69   0.0000       2.444762        66.5254 
  70   0.0000       2.458888        66.9098 
  71   0.0000       2.472081        67.2688 
  72   0.0000       2.704945        73.6053 
  73   0.0000       2.727638        74.2228 

                    ********************************
                    * MULLIKEN POPULATION ANALYSIS *
                    ********************************

------------------------------------------
FOD BASED MULLIKEN REDUCED ORBITAL CHARGES
------------------------------------------
  0 C s       :     0.000000  s :     0.000000
      pz      :     0.000000  p :     0.000000
      px      :     0.000000
      py      :     0.000000
      dz2     :     0.000000  d :     0.000000
      dxz     :     0.000000
      dyz     :     0.000000
      dx2y2   :     0.000000
      dxy     :     0.000000
  1 C s       :    -0.000000  s :    -0.000000
      pz      :     0.000000  p :     0.000000
      px      :     0.000000
      py      :     0.000000
      dz2     :     0.000000  d :     0.000000
      dxz     :     0.000000
      dyz     :     0.000000
      dx2y2   :     0.000000
      dxy     :     0.000000
  2 C s       :    -0.000000  s :    -0.000000
      pz      :     0.000000  p :     0.000000
      px      :     0.000000
      py      :     0.000000
      dz2     :     0.000000  d :     0.000000
      dxz     :     0.000000
      dyz     :     0.000000
      dx2y2   :     0.000000
      dxy     :     0.000000
  3 C s       :    -0.000000  s :    -0.000000
      pz      :     0.000000  p :     0.000000
      px      :     0.000000
      py      :     0.000000
      dz2     :     0.000000  d :     0.000000
      dxz     :     0.000000
      dyz     :     0.000000
      dx2y2   :     0.000000
      dxy     :     0.000000
  4 H s       :     0.000000  s :     0.000000
  5 H s       :     0.000000  s :     0.000000
  6 H s       :     0.000000  s :     0.000000
  7 H s       :     0.000000  s :     0.000000
  8 H s       :     0.000000  s :     0.000000
  9 H s       :     0.000000  s :     0.000000
 10 H s       :     0.000000  s :     0.000000
 11 H s       :     0.000000  s :     0.000000
 12 H s       :     0.000000  s :     0.000000


                     *******************************
                     * LOEWDIN POPULATION ANALYSIS *
                     *******************************

-------------------------------------------
LOEWDIN ATOMIC CHARGES AND SPIN POPULATIONS
-------------------------------------------
   0 C :   -0.078575    0.841532
   1 C :   -0.314154   -0.007165
   2 C :   -0.319171   -0.008280
   3 C :   -0.315965   -0.007785
   4 H :    0.113278    0.013662
   5 H :    0.109262    0.002215
   6 H :    0.116238    0.048142
   7 H :    0.111113    0.013015
   8 H :    0.121097    0.028087
   9 H :    0.114396    0.015899
  10 H :    0.115123    0.039210
  11 H :    0.118476    0.020388
  12 H :    0.108883    0.001079

----------------------------------------------------
LOEWDIN REDUCED ORBITAL CHARGES AND SPIN POPULATIONS
----------------------------------------------------
CHARGE
  0 C s       :     2.938150  s :     2.938150
      pz      :     0.968035  p :     3.046430
      px      :     1.040619
      py      :     1.037777
      dz2     :     0.009458  d :     0.093995
      dxz     :     0.013086
      dyz     :     0.017539
      dx2y2   :     0.024954
      dxy     :     0.028959
  1 C s       :     2.963537  s :     2.963537
      pz      :     1.089792  p :     3.274522
      px      :     1.101427
      py      :     1.083303
      dz2     :     0.022508  d :     0.076095
      dxz     :     0.005461
      dyz     :     0.015276
      dx2y2   :     0.020139
      dxy     :     0.012712
  2 C s       :     2.957487  s :     2.957487
      pz      :     1.105093  p :     3.285430
      px      :     1.083767
      py      :     1.096570
      dz2     :     0.009216  d :     0.076255
      dxz     :     0.022092
      dyz     :     0.012659
      dx2y2   :     0.019044
      dxy     :     0.013243
  3 C s       :     2.960652  s :     2.960652
      pz      :     1.098904  p :     3.278755
      px      :     1.090729
      py      :     1.089122
      dz2     :     0.011331  d :     0.076559
      dxz     :     0.009837
      dyz     :     0.023577
      dx2y2   :     0.013149
      dxy     :     0.018665
  4 H s       :     0.886722  s :     0.886722
  5 H s       :     0.890738  s :     0.890738
  6 H s       :     0.883762  s :     0.883762
  7 H s       :     0.888887  s :     0.888887
  8 H s       :     0.878903  s :     0.878903
  9 H s       :     0.885604  s :     0.885604
 10 H s       :     0.884877  s :     0.884877
 11 H s       :     0.881524  s :     0.881524
 12 H s       :     0.891117  s :     0.891117

SPIN
  0 C s       :     0.089345  s :     0.089345
      pz      :     0.704800  p :     0.754897
      px      :     0.021255
      py      :     0.028841
      dz2     :     0.000313  d :    -0.002709
      dxz     :    -0.000675
      dyz     :    -0.001084
      dx2y2   :    -0.000498
      dxy     :    -0.000766
  1 C s       :    -0.000177  s :    -0.000177
      pz      :    -0.008027  p :    -0.019222
      px      :    -0.002355
      py      :    -0.008840
      dz2     :     0.007468  d :     0.012234
      dxz     :     0.000159
      dyz     :     0.003286
      dx2y2   :     0.001065
      dxy     :     0.000256
  2 C s       :    -0.000364  s :    -0.000364
      pz      :    -0.004745  p :    -0.019446
      px      :    -0.009978
      py      :    -0.004723
      dz2     :     0.000498  d :     0.011530
      dxz     :     0.008334
      dyz     :     0.000867
      dx2y2   :     0.001363
      dxy     :     0.000468
  3 C s       :    -0.000774  s :    -0.000774
      pz      :    -0.005188  p :    -0.018366
      px      :    -0.005294
      py      :    -0.007884
      dz2     :     0.002186  d :     0.011355
      dxz     :     0.000889
      dyz     :     0.006682
      dx2y2   :     0.000146
      dxy     :     0.001452
  4 H s       :     0.013662  s :     0.013662
  5 H s       :     0.002215  s :     0.002215
  6 H s       :     0.048142  s :     0.048142
  7 H s       :     0.013015  s :     0.013015
  8 H s       :     0.028087  s :     0.028087
  9 H s       :     0.015899  s :     0.015899
 10 H s       :     0.039210  s :     0.039210
 11 H s       :     0.020388  s :     0.020388
 12 H s       :     0.001079  s :     0.001079


                      *****************************
                      * MAYER POPULATION ANALYSIS *
                      *****************************

  NA   - Mulliken gross atomic population
  ZA   - Total nuclear charge
  QA   - Mulliken gross atomic charge
  VA   - Mayer's total valence
  BVA  - Mayer's bonded valence
  FA   - Mayer's free valence

  ATOM       NA         ZA         QA         VA         BVA        FA
  0 C      6.1045     6.0000    -0.1045     4.1315     3.3982     0.7333
  1 C      6.2558     6.0000    -0.2558     3.9354     3.9327     0.0027
  2 C      6.2549     6.0000    -0.2549     3.9020     3.8998     0.0022
  3 C      6.2455     6.0000    -0.2455     3.9301     3.9275     0.0025
  4 H      0.9025     1.0000     0.0975     0.9533     0.9531     0.0002
  5 H      0.9067     1.0000     0.0933     0.9609     0.9609     0.0000
  6 H      0.8997     1.0000     0.1003     0.9562     0.9524     0.0039
  7 H      0.9086     1.0000     0.0914     0.9647     0.9644     0.0003
  8 H      0.8984     1.0000     0.1016     0.9509     0.9500     0.0009
  9 H      0.9058     1.0000     0.0942     0.9647     0.9642     0.0005
 10 H      0.9074     1.0000     0.0926     0.9609     0.9583     0.0027
 11 H      0.8957     1.0000     0.1043     0.9513     0.9509     0.0005
 12 H      0.9144     1.0000     0.0856     0.9702     0.9702     0.0000

  Mayer bond orders larger than 0.100000
B(  0-C ,  1-C ) :   1.1106 B(  0-C ,  2-C ) :   1.0795 B(  0-C ,  3-C ) :   1.0956 
B(  1-C ,  4-H ) :   0.9497 B(  1-C ,  5-H ) :   0.9565 B(  1-C ,  6-H ) :   0.9292 
B(  2-C ,  7-H ) :   0.9500 B(  2-C ,  8-H ) :   0.9437 B(  2-C ,  9-H ) :   0.9482 
B(  3-C , 10-H ) :   0.9376 B(  3-C , 11-H ) :   0.9488 B(  3-C , 12-H ) :   0.9576 


-------
TIMINGS
-------

Total SCF time: 0 days 0 hours 1 min 55 sec 

Total time                  ....     115.640 sec
Sum of individual times     ....      89.169 sec  ( 77.1%)

Fock matrix formation       ....      78.289 sec  ( 67.7%)
  XC integration            ....      34.085 sec  ( 43.5% of F)
    Basis function eval.    ....       0.933 sec  (  2.7% of XC)
    Density eval.           ....       0.682 sec  (  2.0% of XC)
    XC-Functional eval.     ....       0.430 sec  (  1.3% of XC)
    XC-Potential eval.      ....       0.908 sec  (  2.7% of XC)
Diagonalization             ....       0.045 sec  (  0.0%)
Density matrix formation    ....       3.586 sec  (  3.1%)
Population analysis         ....       1.665 sec  (  1.4%)
Initial guess               ....       0.264 sec  (  0.2%)
Orbital Transformation      ....       0.000 sec  (  0.0%)
Orbital Orthonormalization  ....       0.000 sec  (  0.0%)
DIIS solution               ....       2.913 sec  (  2.5%)
Grid generation             ....       2.407 sec  (  2.1%)


-------------------------------------------------------------------------------
                          DFT DISPERSION CORRECTION                            
                                                                               
                              DFTD3 V3.1  Rev 1                                
                          USING Becke-Johnson damping                          
-------------------------------------------------------------------------------
The B3LYP functional is recognized
Active option DFTDOPT                   ...         4   

molecular C6(AA) [au] = 1132.655417 


            DFT-D V3
 parameters
 s6 scaling factor         :     1.0000 
 a1 scaling factor         :     0.3981 
 s8 scaling factor         :     1.9889 
 a2 scaling factor         :     4.4211 
 ad hoc parameters k1-k3   :    16.0000     1.3333    -4.0000 

 Edisp/kcal,au: -9.085508214998  -0.014478677409 
 E6   /kcal   :  -4.503292992 
 E8   /kcal   :  -4.582215223 
 % E8         :  50.434330308 

-------------------------   ----------------
Dispersion correction           -0.014478677
-------------------------   ----------------


-------------------------   --------------------
FINAL SINGLE POINT ENERGY      -157.528014543665
-------------------------   --------------------

------------------------------------------------------------------------------
                         ORCA SCF GRADIENT CALCULATION
------------------------------------------------------------------------------

Gradient of the Kohn-Sham DFT energy:
Kohn-Sham wavefunction type      ... UKS
Hartree-Fock exchange scaling    ...    0.200
Number of operators              ...    2
Number of atoms                  ...   13
Basis set dimensions             ...   74
Integral neglect threshold       ... 1.0e-12
Integral primitive cutoff        ... 1.0e-14

Nuclear repulsion gradient       ... done
One Electron Gradient            ... done
Pre-screening matrix             ... done
Starting the two electron gradient:
Two electron gradient done
Exchange-correlation gradient    ... done
Dispersion correction            ... done

------------------
CARTESIAN GRADIENT
------------------

   1   C   :    0.003899909    0.010923346    0.059627815
   2   C   :    0.010974655   -0.009699746   -0.029922045
   3   C   :   -0.024248378    0.007283952   -0.031773903
   4   C   :   -0.003122423   -0.005181615   -0.023436988
   5   H   :    0.003547312    0.001044329    0.010339640
   6   H   :   -0.009207385   -0.010667693    0.005445508
   7   H   :   -0.000326624   -0.000957993   -0.003919779
   8   H   :   -0.001361279   -0.009153313   -0.001819586
   9   H   :   -0.005848610   -0.000025501    0.007856498
  10   H   :    0.000310689    0.000677377   -0.000886939
  11   H   :    0.008234270    0.002050805    0.005555459
  12   H   :    0.008046796    0.001990628    0.003493857
  13   H   :    0.009101067    0.011715425   -0.000559538

Difference to translation invariance:
           :   -0.0000000000    0.0000000000   -0.0000000000

Norm of the cartesian gradient     ...    0.0893978808
RMS gradient                       ...    0.0143151176
MAX gradient                       ...    0.0596278148

-------
TIMINGS
-------

Total SCF gradient time            ...        4.374 sec

One electron gradient       ....       0.030 sec  (  0.7%)
Prescreening matrices       ....       0.029 sec  (  0.7%)
Two electron gradient       ....       1.359 sec  ( 31.1%)
XC gradient                 ....       2.752 sec  ( 62.9%)
------------------------------------------------------------------------------
                         ORCA GEOMETRY RELAXATION STEP
------------------------------------------------------------------------------

Reading the OPT-File                    .... done
Getting information on internals        .... done
Copying old internal coords+grads       .... done
Making the new internal coordinates     .... (new redundants).... done
Validating the new internal coordinates .... (new redundants).... done
Calculating the B-matrix                .... done
Calculating the G,G- and P matrices     .... done
Transforming gradient to internals      .... done
Projecting the internal gradient        .... done
Number of atoms                         ....  13
Number of internal coordinates          ....  51
Current Energy                          ....  -157.528014544 Eh
Current gradient norm                   ....     0.089397881 Eh/bohr
Maximum allowed component of the step   ....  0.300
Current trust radius                    ....  0.300
Evaluating the initial hessian          ....  (Almloef) done
Projecting the Hessian                  .... done
Forming the augmented Hessian           .... done
Diagonalizing the augmented Hessian     .... done
Last element of RFO vector              ....  0.879118941
Lowest eigenvalues of augmented Hessian:
 -0.027655170  0.011651237  0.012373294  0.013092058  0.062565833
Length of the computed step             ....  0.542136473
Warning: the length of the step is outside the trust region - taking restricted step instead
The input lambda is                     ....    -0.027655
   iter:   1  x=   -0.052763  g=    8.121507 f(x)=     0.203912
   iter:   2  x=   -0.076980  g=    3.147890 f(x)=     0.076233
   iter:   3  x=   -0.090080  g=    1.623593 f(x)=     0.021270
   iter:   4  x=   -0.092506  g=    1.205781 f(x)=     0.002925
   iter:   5  x=   -0.092571  g=    1.145269 f(x)=     0.000074
   iter:   6  x=   -0.092571  g=    1.143710 f(x)=     0.000000
   iter:   7  x=   -0.092571  g=    1.143709 f(x)=     0.000000
   iter:   8  x=   -0.092571  g=    1.143709 f(x)=    -0.000000
The output lambda is                    ....    -0.092571 (8 iterations)
The final length of the internal step   ....  0.300000000
Converting the step to cartesian space:
 Initial RMS(Int)=    0.0420084025
Transforming coordinates:
 Iter   0:  RMS(Cart)=    0.0766184377 RMS(Int)=    0.0425864228
 Iter   1:  RMS(Cart)=    0.0030494363 RMS(Int)=    0.0017103243
 Iter   2:  RMS(Cart)=    0.0001103572 RMS(Int)=    0.0000716713
 Iter   3:  RMS(Cart)=    0.0000082959 RMS(Int)=    0.0000063820
 Iter   4:  RMS(Cart)=    0.0000004793 RMS(Int)=    0.0000003303
 Iter   5:  RMS(Cart)=    0.0000000337 RMS(Int)=    0.0000000279
done
Storing new coordinates                 .... done

                                .--------------------.
          ----------------------|Geometry convergence|-------------------------
          Item                value                   Tolerance       Converged
          ---------------------------------------------------------------------
          RMS gradient        0.0093413874            0.0001000000      NO
          MAX gradient        0.0223030639            0.0003000000      NO
          RMS step            0.0420084025            0.0020000000      NO
          MAX step            0.0959614788            0.0040000000      NO
          ........................................................
          Max(Bonds)      0.0230      Max(Angles)    4.26
          Max(Dihed)        5.50      Max(Improp)    0.00
          ---------------------------------------------------------------------

The optimization has not yet converged - more geometry cycles are needed


    ---------------------------------------------------------------------------
                         Redundant Internal Coordinates
                            (Angstroem and degrees)

        Definition                    Value    dE/dq     Step     New-Value
    ----------------------------------------------------------------------------
     1. B(C   1,C   0)                1.5100 -0.010686  0.0114    1.5215   
     2. B(C   2,C   0)                1.4979 -0.022303  0.0230    1.5209   
     3. B(C   3,C   0)                1.5181 -0.017605  0.0193    1.5374   
     4. B(H   4,C   1)                1.1187  0.007227 -0.0092    1.1095   
     5. B(H   5,C   1)                1.1194  0.008517 -0.0108    1.1085   
     6. B(H   6,C   1)                1.1150  0.003770 -0.0047    1.1102   
     7. B(H   7,C   2)                1.1183  0.009182 -0.0117    1.1067   
     8. B(H   8,C   2)                1.1200  0.003752 -0.0048    1.1152   
     9. B(H   9,C   2)                1.1071  0.001111 -0.0014    1.1057   
    10. B(H  10,C   3)                1.1024 -0.002221  0.0027    1.1051   
    11. B(H  11,C   3)                1.1090  0.000464 -0.0006    1.1084   
    12. B(H  12,C   3)                1.0982 -0.002294  0.0027    1.1009   
    13. A(C   1,C   0,C   3)          109.07 -0.005127    2.46    111.53   
    14. A(C   2,C   0,C   3)          108.03 -0.016047    4.26    112.29   
    15. A(C   1,C   0,C   2)          113.08  0.002816    0.99    114.08   
    16. A(H   4,C   1,H   5)          109.24  0.008779   -0.97    108.27   
    17. A(H   5,C   1,H   6)          109.38  0.005771   -0.68    108.70   
    18. A(H   4,C   1,H   6)          111.02  0.006545   -1.35    109.67   
    19. A(C   0,C   1,H   4)          109.91 -0.008198    1.10    111.00   
    20. A(C   0,C   1,H   5)          105.33 -0.019050    2.88    108.21   
    21. A(C   0,C   1,H   6)          111.79  0.005186   -0.81    110.99   
    22. A(H   7,C   2,H   9)          109.61  0.001414   -0.46    109.15   
    23. A(C   0,C   2,H   9)          113.65  0.003241   -0.56    113.09   
    24. A(H   7,C   2,H   8)          105.27  0.003486   -0.18    105.09   
    25. A(C   0,C   2,H   8)          107.33 -0.013279    2.00    109.33   
    26. A(H   8,C   2,H   9)          107.67  0.005867   -0.86    106.81   
    27. A(C   0,C   2,H   7)          112.81 -0.000729    0.11    112.92   
    28. A(H  11,C   3,H  12)          113.99  0.014769   -2.34    111.65   
    29. A(H  10,C   3,H  12)          112.01  0.011254   -1.58    110.42   
    30. A(C   0,C   3,H  12)          107.59 -0.016062    2.20    109.79   
    31. A(H  10,C   3,H  11)          107.00  0.005295   -0.55    106.45   
    32. A(C   0,C   3,H  11)          109.51 -0.007692    1.11    110.62   
    33. A(C   0,C   3,H  10)          106.48 -0.009448    1.45    107.93   
    34. D(H   6,C   1,C   0,C   2)     48.58 -0.009801    3.99     52.58   
    35. D(H   4,C   1,C   0,C   2)    -75.16 -0.015936    5.50    -69.67   
    36. D(H   6,C   1,C   0,C   3)    -71.64  0.012245   -3.75    -75.39   
    37. D(H   5,C   1,C   0,C   2)    167.28 -0.011657    4.49    171.78   
    38. D(H   4,C   1,C   0,C   3)    164.61  0.006111   -2.24    162.37   
    39. D(H   5,C   1,C   0,C   3)     47.06  0.010390   -3.25     43.81   
    40. D(H   7,C   2,C   0,C   1)   -125.53  0.005467   -2.85   -128.38   
    41. D(H   9,C   2,C   0,C   3)    120.86 -0.006261    2.82    123.67   
    42. D(H   9,C   2,C   0,C   1)      0.04  0.009485   -3.85     -3.81   
    43. D(H   8,C   2,C   0,C   3)   -120.22 -0.005951    2.75   -117.46   
    44. D(H   8,C   2,C   0,C   1)    118.97  0.009795   -3.91    115.06   
    45. D(H   7,C   2,C   0,C   3)     -4.71 -0.010280    3.82     -0.90   
    46. D(H  11,C   3,C   0,C   1)   -154.27 -0.004483    1.93   -152.34   
    47. D(H  10,C   3,C   0,C   2)    -32.91  0.007935   -4.16    -37.07   
    48. D(H  10,C   3,C   0,C   1)     90.37 -0.001844    1.24     91.62   
    49. D(H  12,C   3,C   0,C   2)   -153.16  0.008291   -4.25   -157.41   
    50. D(H  12,C   3,C   0,C   1)    -29.88 -0.001488    1.16    -28.72   
    51. D(H  11,C   3,C   0,C   2)     82.44  0.005296   -3.48     78.96   
    ----------------------------------------------------------------------------

Time needed for optimization step       :     1.01 sec

         *************************************************************
         *                GEOMETRY OPTIMIZATION CYCLE   2            *
         *************************************************************
---------------------------------
CARTESIAN COORDINATES (ANGSTROEM)
---------------------------------
  C     -0.016026    0.053293    0.344098
  C     -0.345658    1.403746   -0.274383
  C      1.406830   -0.413088    0.077576
  C     -1.056907   -1.009233   -0.044814
  H      0.199554    2.220799    0.241564
  H     -1.433041    1.583001   -0.154751
  H     -0.099806    1.415944   -1.356989
  H      1.453861   -1.438998   -0.334765
  H      1.965754   -0.461992    1.041402
  H      1.970291    0.270125   -0.584482
  H     -0.701123   -1.513985   -0.961298
  H     -1.126327   -1.791681    0.737183
  H     -2.030601   -0.528148   -0.225247

----------------------------
CARTESIAN COORDINATES (A.U.)
----------------------------
  NO LB      ZA    FRAG     MASS         X           Y           Z
   0 C     6.0000    0    12.011   -0.030284    0.100709    0.650250
   1 C     6.0000    0    12.011   -0.653198    2.652696   -0.518510
   2 C     6.0000    0    12.011    2.658523   -0.780624    0.146597
   3 C     6.0000    0    12.011   -1.997265   -1.907173   -0.084686
   4 H     1.0000    0     1.008    0.377102    4.196702    0.456491
   5 H     1.0000    0     1.008   -2.708055    2.991438   -0.292437
   6 H     1.0000    0     1.008   -0.188606    2.675747   -2.564337
   7 H     1.0000    0     1.008    2.747399   -2.719312   -0.632614
   8 H     1.0000    0     1.008    3.714737   -0.873038    1.967964
   9 H     1.0000    0     1.008    3.723310    0.510463   -1.104512
  10 H     1.0000    0     1.008   -1.324931   -2.861018   -1.816589
  11 H     1.0000    0     1.008   -2.128450   -3.385787    1.393074
  12 H     1.0000    0     1.008   -3.837280   -0.998056   -0.425655

--------------------------------
INTERNAL COORDINATES (ANGSTROEM)
--------------------------------
 C      0   0   0     0.000000000000     0.00000000     0.00000000
 C      1   0   0     1.521479604829     0.00000000     0.00000000
 C      1   2   0     1.520875884517   113.80568834     0.00000000
 C      1   2   3     1.537415838780   111.34079443   232.05390371
 H      2   1   3     1.109518999823   110.98557488   290.34322109
 H      2   1   3     1.108533425653   108.19046140   171.74679685
 H      2   1   3     1.110236929422   110.98717557    52.56528698
 H      3   1   2     1.106673781433   112.91261392   231.60380529
 H      3   1   2     1.115234524289   109.32146815   115.02775912
 H      3   1   2     1.105708047872   113.09133749   356.17165579
 H      4   1   2     1.105124492131   107.90725614    91.69002810
 H      4   1   2     1.108406120593   110.59768882   207.72798895
 H      4   1   2     1.100944293427   109.76968413   331.34484190

---------------------------
INTERNAL COORDINATES (A.U.)
---------------------------
 C      0   0   0     0.000000000000     0.00000000     0.00000000
 C      1   0   0     2.875179771473     0.00000000     0.00000000
 C      1   2   0     2.874038905423   113.80568834     0.00000000
 C      1   2   3     2.905294889248   111.34079443   232.05390371
 H      2   1   3     2.096687050047   110.98557488   290.34322109
 H      2   1   3     2.094824584782   108.19046140   171.74679685
 H      2   1   3     2.098043740373   110.98717557    52.56528698
 H      3   1   2     2.091310366500   112.91261392   231.60380529
 H      3   1   2     2.107487826000   109.32146815   115.02775912
 H      3   1   2     2.089485394551   113.09133749   356.17165579
 H      4   1   2     2.088382634017   107.90725614    91.69002810
 H      4   1   2     2.094584013082   110.59768882   207.72798895
 H      4   1   2     2.080483203280   109.76968413   331.34484190


Diagonalization of the overlap matrix:
Smallest eigenvalue                        ... 2.478e-03
Time for diagonalization                   ...    0.001 sec
Threshold for overlap eigenvalues          ... 1.000e-08
Number of eigenvalues below threshold      ... 0
Time for construction of square roots      ...    1.167 sec
Total time needed                          ...    1.168 sec

-------------------
DFT GRID GENERATION
-------------------

General Integration Accuracy     IntAcc      ...  4.340
Radial Grid Type                 RadialGrid  ... Gauss-Chebyshev
Angular Grid (max. acc.)         AngularGrid ... Lebedev-110
Angular grid pruning method      GridPruning ... 3 (G Style)
Weight generation scheme         WeightScheme... Becke
Basis function cutoff            BFCut       ...    1.0000e-12
Integration weight cutoff        WCut        ...    1.0000e-14
Grids for H and He will be reduced by one unit

# of grid points (after initial pruning)     ...  13770 (   0.0 sec)
# of grid points (after weights+screening)   ...  12902 (   0.0 sec)
nearest neighbour list constructed           ...    0.0 sec
Grid point re-assignment to atoms done       ...    0.0 sec
Grid point division into batches done        ...    0.0 sec
Reduced shell lists constructed in    0.1 sec

Total number of grid points                  ...    12902
Total number of batches                      ...      210
Average number of points per batch           ...       61
Average number of grid points per atom       ...      992
Average number of shells per batch           ...    37.12 (88.38%)
Average number of basis functions per batch  ...    66.12 (89.36%)
Average number of large shells per batch     ...    32.15 (86.62%)
Average number of large basis fcns per batch ...    56.96 (86.14%)
Maximum spatial batch extension              ...  21.15, 24.72, 20.49 au
Average spatial batch extension              ...   4.14,  4.12,  4.00 au

Time for grid setup =    0.264 sec

--------------
SCF ITERATIONS
--------------
ITER       Energy         Delta-E        Max-DP      RMS-DP      [F,P]     Damp
               ***  Starting incremental Fock matrix formation  ***
  0   -157.5235637957   0.000000000000 0.00254038  0.00015908  0.0173117 0.7000
  1   -157.5243014395  -0.000737643794 0.00186476  0.00014658  0.0137036 0.7000
                               ***Turning on DIIS***
  2   -157.5248752730  -0.000573833484 0.00484618  0.00038725  0.0102902 0.0000
  3   -157.5263229469  -0.001447673897 0.00309165  0.00008471  0.0013613 0.0000
  4   -157.5263450552  -0.000022108312 0.00232330  0.00007008  0.0006789 0.0000
  5   -157.5263496662  -0.000004610991 0.00033015  0.00001382  0.0003552 0.0000
  6   -157.5263502098  -0.000000543599 0.00029573  0.00000722  0.0001252 0.0000
  7   -157.5263502820  -0.000000072201 0.00003202  0.00000139  0.0000195 0.0000
  8   -157.5263502864  -0.000000004465 0.00001167  0.00000053  0.0000100 0.0000
  9   -157.5263502873  -0.000000000820 0.00000915  0.00000025  0.0000043 0.0000
 10   -157.5263502874  -0.000000000138 0.00000102  0.00000006  0.0000006 0.0000
                 **** Energy Check signals convergence ****

 Fermi smearing  (ALPHA): E(HOMO(Eh)) = -0.326322 MUE = -0.068311 gap=   6.887 eV
 Fermi smearing   (BETA): E(HOMO(Eh)) = -0.320383 MUE = -0.181366 gap=   7.517 eV

N_FOD(alpha) =  0.000000
 N_FOD(beta) =  0.000000
       N_FOD =  0.000000

               *****************************************************
               *                     SUCCESS                       *
               *           SCF CONVERGED AFTER  11 CYCLES          *
               *****************************************************

Setting up the final grid:

General Integration Accuracy     IntAcc      ...  4.670
Radial Grid Type                 RadialGrid  ... Gauss-Chebyshev
Angular Grid (max. acc.)         AngularGrid ... Lebedev-302
Angular grid pruning method      GridPruning ... 3 (G Style)
Weight generation scheme         WeightScheme... Becke
Basis function cutoff            BFCut       ...    1.0000e-12
Integration weight cutoff        WCut        ...    1.0000e-14
Grids for H and He will be reduced by one unit

# of grid points (after initial pruning)     ...  55394 (   0.0 sec)
# of grid points (after weights+screening)   ...  51305 (   0.1 sec)
nearest neighbour list constructed           ...    0.0 sec
Grid point re-assignment to atoms done       ...    0.0 sec
Grid point division into batches done        ...    0.2 sec
Reduced shell lists constructed in    0.4 sec

Total number of grid points                  ...    51305
Total number of batches                      ...      807
Average number of points per batch           ...       63
Average number of grid points per atom       ...     3947
Average number of shells per batch           ...    34.80 (82.86%)
Average number of basis functions per batch  ...    61.81 (83.52%)
Average number of large shells per batch     ...    29.49 (84.75%)
Average number of large basis fcns per batch ...    51.90 (83.98%)
Maximum spatial batch extension              ...  19.45, 18.89, 21.47 au
Average spatial batch extension              ...   2.64,  2.62,  2.60 au

Final grid set up in    0.8 sec
Final integration                            ... done (   3.9 sec)
Change in XC energy                          ...    -0.000001309
Integrated number of electrons               ...    33.000084238
Previous integrated no of electrons          ...    33.000648668
Total Energy       :         -157.52635160 Eh           -4286.50995 eV
  Last Energy change         ...   -1.7366e-11  Tolerance :   1.0000e-09
  Last MAX-Density change    ...    3.1671e-07  Tolerance :   1.0000e-08
             **** THE GBW FILE WAS UPDATED (orca5.gbw) ****
             **** DENSITY FILE WAS UPDATED (orca5.scfp) ****
             **** ENERGY FILE WAS UPDATED (orca5.en.tmp) ****
             **** THE GBW FILE WAS UPDATED (orca5.gbw) ****
             **** DENSITY FILE WAS UPDATED (orca5.scfp) ****
Total SCF time: 0 days 0 hours 1 min 26 sec 


-------------------------------------------------------------------------------
                          DFT DISPERSION CORRECTION                            
                                                                               
                              DFTD3 V3.1  Rev 1                                
                          USING Becke-Johnson damping                          
-------------------------------------------------------------------------------
-------------------------   ----------------
Dispersion correction           -0.014164607
-------------------------   ----------------


-------------------------   --------------------
FINAL SINGLE POINT ENERGY      -157.540516203154
-------------------------   --------------------

------------------------------------------------------------------------------
                         ORCA SCF GRADIENT CALCULATION
------------------------------------------------------------------------------

Gradient of the Kohn-Sham DFT energy:
Kohn-Sham wavefunction type      ... UKS
Hartree-Fock exchange scaling    ...    0.200
Number of operators              ...    2
Number of atoms                  ...   13
Basis set dimensions             ...   74
Integral neglect threshold       ... 1.0e-12
Integral primitive cutoff        ... 1.0e-14

Nuclear repulsion gradient       ... done
One Electron Gradient            ... done
Pre-screening matrix             ... done
Starting the two electron gradient:
Two electron gradient done
Exchange-correlation gradient    ... done
Dispersion correction            ... done

------------------
CARTESIAN GRADIENT
------------------

   1   C   :    0.004169537    0.009448902    0.049412841
   2   C   :    0.004769462    0.002298603   -0.023416762
   3   C   :   -0.004746259   -0.000006758   -0.025859202
   4   C   :   -0.012867775   -0.009589318   -0.018301490
   5   H   :   -0.000185639   -0.000767875    0.005416731
   6   H   :   -0.002858941   -0.005587161    0.002619449
   7   H   :   -0.000809782   -0.000913906   -0.000053604
   8   H   :    0.001297788   -0.001683880    0.001446180
   9   H   :   -0.002740144   -0.000770180    0.003938868
  10   H   :    0.000979245   -0.000300051    0.000471484
  11   H   :    0.004158869    0.000983186    0.004143870
  12   H   :    0.004722149    0.000676880    0.001486335
  13   H   :    0.004111490    0.006211557   -0.001304701

Difference to translation invariance:
           :   -0.0000000000    0.0000000000   -0.0000000000

Norm of the cartesian gradient     ...    0.0680821251
RMS gradient                       ...    0.0109018650
MAX gradient                       ...    0.0494128407

-------
TIMINGS
-------

Total SCF gradient time            ...        4.304 sec

One electron gradient       ....       0.030 sec  (  0.7%)
Prescreening matrices       ....       0.028 sec  (  0.7%)
Two electron gradient       ....       1.387 sec  ( 32.2%)
XC gradient                 ....       2.698 sec  ( 62.7%)
------------------------------------------------------------------------------
                         ORCA GEOMETRY RELAXATION STEP
------------------------------------------------------------------------------

Reading the OPT-File                    .... done
Getting information on internals        .... done
Copying old internal coords+grads       .... done
Making the new internal coordinates     .... (new redundants).... done
Validating the new internal coordinates .... (new redundants).... done
Calculating the B-matrix                .... done
Calculating the G,G- and P matrices     .... done
Transforming gradient to internals      .... done
Projecting the internal gradient        .... done
Number of atoms                         ....  13
Number of internal coordinates          ....  51
Current Energy                          ....  -157.540516203 Eh
Current gradient norm                   ....     0.068082125 Eh/bohr
Maximum allowed component of the step   ....  0.300
Current trust radius                    ....  0.300
Updating the Hessian (BFGS)             .... done
Forming the augmented Hessian           .... done
Diagonalizing the augmented Hessian     .... done
Last element of RFO vector              ....  0.929186334
Lowest eigenvalues of augmented Hessian:
 -0.010808318  0.011547557  0.012237860  0.013075349  0.059857446
Length of the computed step             ....  0.397779880
Warning: the length of the step is outside the trust region - taking restricted step instead
The input lambda is                     ....    -0.010808
   iter:   1  x=   -0.022925  g=    5.631039 f(x)=     0.068229
   iter:   2  x=   -0.029382  g=    2.947561 f(x)=     0.019033
   iter:   3  x=   -0.030454  g=    2.247665 f(x)=     0.002409
   iter:   4  x=   -0.030477  g=    2.155393 f(x)=     0.000050
   iter:   5  x=   -0.030477  g=    2.153458 f(x)=     0.000000
   iter:   6  x=   -0.030477  g=    2.153458 f(x)=     0.000000
The output lambda is                    ....    -0.030477 (6 iterations)
The final length of the internal step   ....  0.300000000
Converting the step to cartesian space:
 Initial RMS(Int)=    0.0420084025
Transforming coordinates:
 Iter   0:  RMS(Cart)=    0.0507367417 RMS(Int)=    0.0428968591
 Iter   1:  RMS(Cart)=    0.0029102375 RMS(Int)=    0.0017849393
 Iter   2:  RMS(Cart)=    0.0001287314 RMS(Int)=    0.0000835405
 Iter   3:  RMS(Cart)=    0.0000050893 RMS(Int)=    0.0000044279
 Iter   4:  RMS(Cart)=    0.0000003251 RMS(Int)=    0.0000002331
 Iter   5:  RMS(Cart)=    0.0000000203 RMS(Int)=    0.0000000161
done
Storing new coordinates                 .... done

                                .--------------------.
          ----------------------|Geometry convergence|-------------------------
          Item                value                   Tolerance       Converged
          ---------------------------------------------------------------------
          Energy change      -0.0125016595            0.0000050000      NO
          RMS gradient        0.0044183996            0.0001000000      NO
          MAX gradient        0.0098120808            0.0003000000      NO
          RMS step            0.0420084025            0.0020000000      NO
          MAX step            0.1020965485            0.0040000000      NO
          ........................................................
          Max(Bonds)      0.0106      Max(Angles)    3.27
          Max(Dihed)        5.85      Max(Improp)    0.00
          ---------------------------------------------------------------------

The optimization has not yet converged - more geometry cycles are needed


    ---------------------------------------------------------------------------
                         Redundant Internal Coordinates
                            (Angstroem and degrees)

        Definition                    Value    dE/dq     Step     New-Value
    ----------------------------------------------------------------------------
     1. B(C   1,C   0)                1.5215  0.001661 -0.0040    1.5175   
     2. B(C   2,C   0)                1.5209 -0.000526 -0.0002    1.5206   
     3. B(C   3,C   0)                1.5374  0.004645 -0.0106    1.5268   
     4. B(H   4,C   1)                1.1095  0.001864 -0.0037    1.1059   
     5. B(H   5,C   1)                1.1085  0.002184 -0.0043    1.1042   
     6. B(H   6,C   1)                1.1102 -0.000140  0.0007    1.1110   
     7. B(H   7,C   2)                1.1067  0.001076 -0.0015    1.1051   
     8. B(H   8,C   2)                1.1152  0.002067 -0.0046    1.1107   
     9. B(H   9,C   2)                1.1057  0.000029  0.0000    1.1058   
    10. B(H  10,C   3)                1.1051 -0.002541  0.0056    1.1107   
    11. B(H  11,C   3)                1.1084  0.000271 -0.0006    1.1078   
    12. B(H  12,C   3)                1.1009 -0.000708  0.0014    1.1023   
    13. A(C   1,C   0,C   3)          111.34 -0.005323    3.27    114.61   
    14. A(C   2,C   0,C   3)          112.16 -0.004886    2.92    115.08   
    15. A(C   1,C   0,C   2)          113.81  0.000940    1.37    115.17   
    16. A(H   4,C   1,H   5)          108.23  0.004059   -0.52    107.71   
    17. A(H   5,C   1,H   6)          108.70  0.003060   -0.60    108.10   
    18. A(H   4,C   1,H   6)          109.67  0.004039   -1.53    108.14   
    19. A(C   0,C   1,H   4)          110.99 -0.003750    0.85    111.84   
    20. A(C   0,C   1,H   5)          108.19 -0.009812    2.65    110.84   
    21. A(C   0,C   1,H   6)          110.99  0.002411   -0.70    110.28   
    22. A(H   7,C   2,H   9)          109.15 -0.000380   -0.35    108.80   
    23. A(C   0,C   2,H   9)          113.09  0.002912   -0.92    112.17   
    24. A(H   7,C   2,H   8)          105.07  0.000023    0.53    105.60   
    25. A(C   0,C   2,H   8)          109.32 -0.007124    1.96    111.29   
    26. A(H   8,C   2,H   9)          106.81  0.002109   -0.40    106.41   
    27. A(C   0,C   2,H   7)          112.91  0.002188   -0.65    112.26   
    28. A(H  11,C   3,H  12)          111.64  0.007898   -2.23    109.41   
    29. A(H  10,C   3,H  12)          110.39  0.005714   -1.38    109.01   
    30. A(C   0,C   3,H  12)          109.77 -0.007324    1.66    111.43   
    31. A(H  10,C   3,H  11)          106.43  0.002115   -0.14    106.29   
    32. A(C   0,C   3,H  11)          110.60 -0.004037    1.03    111.63   
    33. A(C   0,C   3,H  10)          107.91 -0.004392    1.22    109.13   
    34. D(H   6,C   1,C   0,C   2)     52.57 -0.004576    4.00     56.56   
    35. D(H   4,C   1,C   0,C   2)    -69.66 -0.008802    5.85    -63.81   
    36. D(H   6,C   1,C   0,C   3)    -75.38  0.005968   -3.17    -78.55   
    37. D(H   5,C   1,C   0,C   2)    171.75 -0.005521    4.50    176.24   
    38. D(H   4,C   1,C   0,C   3)    162.40  0.001742   -1.32    161.08   
    39. D(H   5,C   1,C   0,C   3)     43.80  0.005023   -2.67     41.13   
    40. D(H   7,C   2,C   0,C   1)   -128.40  0.003303   -2.71   -131.11   
    41. D(H   9,C   2,C   0,C   3)    123.70 -0.003914    2.88    126.57   
    42. D(H   9,C   2,C   0,C   1)     -3.83  0.006909   -4.50     -8.33   
    43. D(H   8,C   2,C   0,C   3)   -117.45 -0.004253    3.14   -114.30   
    44. D(H   8,C   2,C   0,C   1)    115.03  0.006570   -4.23    110.80   
    45. D(H   7,C   2,C   0,C   3)     -0.87 -0.007520    4.66      3.79   
    46. D(H  11,C   3,C   0,C   1)   -152.27 -0.003652    2.20   -150.07   
    47. D(H  10,C   3,C   0,C   2)    -37.14  0.005766   -4.81    -41.95   
    48. D(H  10,C   3,C   0,C   1)     91.69 -0.001463    1.17     92.86   
    49. D(H  12,C   3,C   0,C   2)   -157.48  0.005778   -4.78   -162.27   
    50. D(H  12,C   3,C   0,C   1)    -28.66 -0.001450    1.20    -27.46   
    51. D(H  11,C   3,C   0,C   2)     78.90  0.003577   -3.78     75.11   
    ----------------------------------------------------------------------------

         *************************************************************
         *                GEOMETRY OPTIMIZATION CYCLE   3            *
         *************************************************************
---------------------------------
CARTESIAN COORDINATES (ANGSTROEM)
---------------------------------
  C     -0.023640    0.036074    0.281697
  C     -0.341587    1.411466   -0.275168
  C      1.418138   -0.406685    0.087828
  C     -1.067104   -1.028908   -0.047044
  H      0.227413    2.205701    0.242851
  H     -1.415588    1.641598   -0.161581
  H     -0.091489    1.456282   -1.356704
  H      1.489611   -1.426797   -0.331177
  H      1.962489   -0.442529    1.055290
  H      1.983097    0.285783   -0.563325
  H     -0.767459   -1.555892   -0.977713
  H     -1.122473   -1.803197    0.743324
  H     -2.064609   -0.583113   -0.193184

----------------------------
[...]

             **** THE GBW FILE WAS UPDATED (orca5.gbw) ****
             **** DENSITY FILE WAS UPDATED (orca5.scfp) ****
             **** ENERGY FILE WAS UPDATED (orca5.en.tmp) ****
             **** THE GBW FILE WAS UPDATED (orca5.gbw) ****
             **** DENSITY FILE WAS UPDATED (orca5.scfp) ****
----------------
ORBITAL ENERGIES
----------------
                 SPIN UP ORBITALS
  NO   OCC          E(Eh)            E(eV) 
   0   1.0000     -10.180498      -277.0254 
   1   1.0000     -10.169040      -276.7136 
   2   1.0000     -10.168724      -276.7050 
   3   1.0000     -10.168130      -276.6889 
   4   1.0000      -0.787245       -21.4220 
   5   1.0000      -0.677815       -18.4443 
   6   1.0000      -0.676093       -18.3974 
   7   1.0000      -0.525785       -14.3073 
   8   1.0000      -0.438365       -11.9285 
   9   1.0000      -0.434876       -11.8336 
  10   1.0000      -0.432888       -11.7795 
  11   1.0000      -0.383724       -10.4417 
  12   1.0000      -0.379973       -10.3396 
  13   1.0000      -0.362410        -9.8617 
  14   1.0000      -0.342767        -9.3272 
  15   1.0000      -0.341343        -9.2884 
  16   1.0000      -0.164736        -4.4827 
  17   0.0000       0.055305         1.5049 
  18   0.0000       0.103629         2.8199 
  19   0.0000       0.107625         2.9286 
  20   0.0000       0.119498         3.2517 
  21   0.0000       0.121013         3.2929 
  22   0.0000       0.140251         3.8164 
  23   0.0000       0.144829         3.9410 
  24   0.0000       0.156465         4.2576 
  25   0.0000       0.174348         4.7442 
  26   0.0000       0.210269         5.7217 
  27   0.0000       0.281644         7.6639 
  28   0.0000       0.300544         8.1782 
  29   0.0000       0.404198        10.9988 
  30   0.0000       0.418730        11.3942 
  31   0.0000       0.462470        12.5845 
  32   0.0000       0.465200        12.6587 
  33   0.0000       0.477523        12.9940 
  34   0.0000       0.509347        13.8600 
  35   0.0000       0.590741        16.0749 
  36   0.0000       0.619958        16.8699 
  37   0.0000       0.641534        17.4570 
  38   0.0000       0.656199        17.8561 
  39   0.0000       0.666878        18.1467 
  40   0.0000       0.669559        18.2196 
  41   0.0000       0.681359        18.5407 
  42   0.0000       0.683365        18.5953 
  43   0.0000       0.696570        18.9546 
  44   0.0000       0.703239        19.1361 
  45   0.0000       0.713106        19.4046 
  46   0.0000       0.718361        19.5476 
  47   0.0000       0.736536        20.0422 
  48   0.0000       0.739842        20.1321 
  49   0.0000       0.782542        21.2940 
  50   0.0000       0.793527        21.5930 
  51   0.0000       0.862605        23.4727 
  52   0.0000       0.977882        26.6095 
  53   0.0000       1.003518        27.3071 
  54   0.0000       1.417011        38.5588 
  55   0.0000       1.439161        39.1616 
  56   0.0000       1.727356        47.0038 
  57   0.0000       1.778673        48.4002 
  58   0.0000       1.791288        48.7434 
  59   0.0000       1.821531        49.5664 
  60   0.0000       1.901633        51.7461 
  61   0.0000       1.973667        53.7062 
  62   0.0000       2.001345        54.4594 
  63   0.0000       2.025816        55.1253 
  64   0.0000       2.073871        56.4329 
  65   0.0000       2.135453        58.1086 
  66   0.0000       2.149538        58.4919 
  67   0.0000       2.211095        60.1670 
  68   0.0000       2.245143        61.0935 
  69   0.0000       2.366235        64.3885 
  70   0.0000       2.386630        64.9435 
  71   0.0000       2.493847        67.8610 
  72   0.0000       2.741115        74.5895 
  73   0.0000       2.742381        74.6240 

                 SPIN DOWN ORBITALS
  NO   OCC          E(Eh)            E(eV) 
   0   1.0000     -10.170102      -276.7425 
   1   1.0000     -10.169820      -276.7349 
   2   1.0000     -10.169207      -276.7182 
   3   1.0000     -10.166111      -276.6339 
   4   1.0000      -0.769894       -20.9499 
   5   1.0000      -0.675315       -18.3762 
   6   1.0000      -0.673814       -18.3354 
   7   1.0000      -0.507200       -13.8016 
   8   1.0000      -0.430822       -11.7233 
   9   1.0000      -0.430045       -11.7021 
  10   1.0000      -0.417400       -11.3580 
  11   1.0000      -0.377160       -10.2631 
  12   1.0000      -0.373917       -10.1748 
  13   1.0000      -0.361109        -9.8263 
  14   1.0000      -0.337541        -9.1850 
  15   1.0000      -0.336825        -9.1655 
  16   0.0000      -0.024575        -0.6687 
  17   0.0000       0.056680         1.5423 
  18   0.0000       0.104837         2.8528 
  19   0.0000       0.108600         2.9551 
  20   0.0000       0.121317         3.3012 
  21   0.0000       0.123708         3.3663 
  22   0.0000       0.143262         3.8983 
  23   0.0000       0.149830         4.0771 
  24   0.0000       0.160616         4.3706 
  25   0.0000       0.175257         4.7690 
  26   0.0000       0.229358         6.2412 
  27   0.0000       0.287203         7.8152 
  28   0.0000       0.306052         8.3281 
  29   0.0000       0.406638        11.0652 
  30   0.0000       0.421340        11.4652 
  31   0.0000       0.474937        12.9237 
  32   0.0000       0.482301        13.1241 
  33   0.0000       0.490492        13.3470 
  34   0.0000       0.523509        14.2454 
  35   0.0000       0.598279        16.2800 
  36   0.0000       0.637903        17.3582 
  37   0.0000       0.644510        17.5380 
  38   0.0000       0.665551        18.1106 
  39   0.0000       0.672204        18.2916 
  40   0.0000       0.683931        18.6107 
  41   0.0000       0.685658        18.6577 
  42   0.0000       0.687103        18.6970 
  43   0.0000       0.702347        19.1118 
  44   0.0000       0.709300        19.3010 
  45   0.0000       0.718046        19.5390 
  46   0.0000       0.721975        19.6459 
  47   0.0000       0.738548        20.0969 
  48   0.0000       0.742051        20.1922 
  49   0.0000       0.789220        21.4758 
  50   0.0000       0.799758        21.7625 
  51   0.0000       0.870606        23.6904 
  52   0.0000       0.981041        26.6955 
  53   0.0000       1.006844        27.3976 
  54   0.0000       1.440090        39.1868 
  55   0.0000       1.462769        39.8040 
  56   0.0000       1.724983        46.9392 
  57   0.0000       1.782515        48.5047 
  58   0.0000       1.796700        48.8907 
  59   0.0000       1.844770        50.1988 
  60   0.0000       1.924667        52.3728 
  61   0.0000       1.977335        53.8060 
  62   0.0000       2.005176        54.5636 
  63   0.0000       2.036793        55.4239 
  64   0.0000       2.085012        56.7361 
  65   0.0000       2.136860        58.1469 
  66   0.0000       2.149222        58.4833 
  67   0.0000       2.214851        60.2691 
  68   0.0000       2.245990        61.1165 
  69   0.0000       2.391663        65.0805 
  70   0.0000       2.410644        65.5969 
  71   0.0000       2.521751        68.6203 
  72   0.0000       2.748172        74.7816 
  73   0.0000       2.749614        74.8208 

                    ********************************
                    * MULLIKEN POPULATION ANALYSIS *
                    ********************************

------------------------------------------
FOD BASED MULLIKEN REDUCED ORBITAL CHARGES
------------------------------------------
  0 C s       :     0.000000  s :     0.000000
      pz      :     0.000000  p :     0.000000
      px      :     0.000000
      py      :     0.000000
      dz2     :     0.000000  d :     0.000000
      dxz     :     0.000000
      dyz     :     0.000000
      dx2y2   :     0.000000
      dxy     :     0.000000
  1 C s       :    -0.000000  s :    -0.000000
      pz      :     0.000000  p :     0.000000
      px      :     0.000000
      py      :     0.000000
      dz2     :     0.000000  d :     0.000000
      dxz     :     0.000000
      dyz     :     0.000000
      dx2y2   :     0.000000
      dxy     :     0.000000
  2 C s       :    -0.000000  s :    -0.000000
      pz      :     0.000000  p :     0.000000
      px      :     0.000000
      py      :     0.000000
      dz2     :     0.000000  d :     0.000000
      dxz     :     0.000000
      dyz     :     0.000000
      dx2y2   :     0.000000
      dxy     :     0.000000
  3 C s       :    -0.000000  s :    -0.000000
      pz      :     0.000000  p :     0.000000
      px      :     0.000000
      py      :     0.000000
      dz2     :     0.000000  d :     0.000000
      dxz     :     0.000000
      dyz     :     0.000000
      dx2y2   :     0.000000
      dxy     :     0.000000
  4 H s       :     0.000000  s :     0.000000
  5 H s       :     0.000000  s :     0.000000
  6 H s       :     0.000000  s :     0.000000
  7 H s       :     0.000000  s :     0.000000
  8 H s       :     0.000000  s :     0.000000
  9 H s       :     0.000000  s :     0.000000
 10 H s       :     0.000000  s :     0.000000
 11 H s       :     0.000000  s :     0.000000
 12 H s       :     0.000000  s :     0.000000


                     *******************************
                     * LOEWDIN POPULATION ANALYSIS *
                     *******************************

-------------------------------------------
LOEWDIN ATOMIC CHARGES AND SPIN POPULATIONS
-------------------------------------------
   0 C :   -0.085861    0.825928
   1 C :   -0.311668   -0.025054
   2 C :   -0.313148   -0.024497
   3 C :   -0.311147   -0.025106
   4 H :    0.113786    0.018369
   5 H :    0.112477    0.008787
   6 H :    0.112883    0.054604
   7 H :    0.113364    0.003814
   8 H :    0.116741    0.045671
   9 H :    0.113332    0.030668
  10 H :    0.112933    0.059025
  11 H :    0.113282    0.009916
  12 H :    0.113027    0.017875

----------------------------------------------------
LOEWDIN REDUCED ORBITAL CHARGES AND SPIN POPULATIONS
----------------------------------------------------
CHARGE
  0 C s       :     2.898991  s :     2.898991
      pz      :     1.002506  p :     3.096578
      px      :     1.046770
      py      :     1.047302
      dz2     :     0.007419  d :     0.090293
      dxz     :     0.008571
      dyz     :     0.010097
      dx2y2   :     0.032704
      dxy     :     0.031502
  1 C s       :     2.945790  s :     2.945790
      pz      :     1.104507  p :     3.287602
      px      :     1.106073
      py      :     1.077021
      dz2     :     0.020187  d :     0.078275
      dxz     :     0.006254
      dyz     :     0.018024
      dx2y2   :     0.018475
      dxy     :     0.015336
  2 C s       :     2.946120  s :     2.946120
      pz      :     1.107749  p :     3.289041
      px      :     1.076150
      py      :     1.105142
      dz2     :     0.015232  d :     0.077988
      dxz     :     0.023300
      dyz     :     0.006642
      dx2y2   :     0.020815
      dxy     :     0.012000
  3 C s       :     2.945674  s :     2.945674
      pz      :     1.106837  p :     3.286675
      px      :     1.090027
      py      :     1.089811
      dz2     :     0.016355  d :     0.078798
      dxz     :     0.011424
      dyz     :     0.017663
      dx2y2   :     0.016448
      dxy     :     0.016907
  4 H s       :     0.886214  s :     0.886214
  5 H s       :     0.887523  s :     0.887523
  6 H s       :     0.887117  s :     0.887117
  7 H s       :     0.886636  s :     0.886636
  8 H s       :     0.883259  s :     0.883259
  9 H s       :     0.886668  s :     0.886668
 10 H s       :     0.887067  s :     0.887067
 11 H s       :     0.886718  s :     0.886718
 12 H s       :     0.886973  s :     0.886973

SPIN
  0 C s       :     0.034518  s :     0.034518
      pz      :     0.733001  p :     0.795226
      px      :     0.033268
      py      :     0.028957
      dz2     :    -0.001890  d :    -0.003817
      dxz     :    -0.000131
      dyz     :    -0.000257
      dx2y2   :    -0.000801
      dxy     :    -0.000738
  1 C s       :    -0.006389  s :    -0.006389
      pz      :    -0.014058  p :    -0.035957
      px      :    -0.004636
      py      :    -0.017262
      dz2     :     0.005155  d :     0.017292
      dxz     :     0.000114
      dyz     :     0.010858
      dx2y2   :     0.000673
      dxy     :     0.000492
  2 C s       :    -0.006555  s :    -0.006555
      pz      :    -0.012613  p :    -0.035312
      px      :    -0.018102
      py      :    -0.004598
      dz2     :     0.001919  d :     0.017371
      dxz     :     0.014088
      dyz     :     0.000199
      dx2y2   :     0.000685
      dxy     :     0.000479
  3 C s       :    -0.006631  s :    -0.006631
      pz      :    -0.013411  p :    -0.036685
      px      :    -0.012002
      py      :    -0.011273
      dz2     :     0.002749  d :     0.018210
      dxz     :     0.006335
      dyz     :     0.007411
      dx2y2   :     0.000770
      dxy     :     0.000945
  4 H s       :     0.018369  s :     0.018369
  5 H s       :     0.008787  s :     0.008787
  6 H s       :     0.054604  s :     0.054604
  7 H s       :     0.003814  s :     0.003814
  8 H s       :     0.045671  s :     0.045671
  9 H s       :     0.030668  s :     0.030668
 10 H s       :     0.059025  s :     0.059025
 11 H s       :     0.009916  s :     0.009916
 12 H s       :     0.017875  s :     0.017875


                      *****************************
                      * MAYER POPULATION ANALYSIS *
                      *****************************

  NA   - Mulliken gross atomic population
  ZA   - Total nuclear charge
  QA   - Mulliken gross atomic charge
  VA   - Mayer's total valence
  BVA  - Mayer's bonded valence
  FA   - Mayer's free valence

  ATOM       NA         ZA         QA         VA         BVA        FA
  0 C      6.1712     6.0000    -0.1712     4.2310     3.5361     0.6949
  1 C      6.2125     6.0000    -0.2125     3.9461     3.9426     0.0036
  2 C      6.2189     6.0000    -0.2189     3.9473     3.9436     0.0037
  3 C      6.2077     6.0000    -0.2077     3.9667     3.9626     0.0041
  4 H      0.9108     1.0000     0.0892     0.9559     0.9555     0.0004
  5 H      0.9130     1.0000     0.0870     0.9615     0.9614     0.0001
  6 H      0.9088     1.0000     0.0912     0.9485     0.9442     0.0042
  7 H      0.9117     1.0000     0.0883     0.9629     0.9629     0.0000
  8 H      0.9049     1.0000     0.0951     0.9483     0.9455     0.0028
  9 H      0.9095     1.0000     0.0905     0.9539     0.9525     0.0014
 10 H      0.9079     1.0000     0.0921     0.9457     0.9408     0.0049
 11 H      0.9114     1.0000     0.0886     0.9583     0.9582     0.0001
 12 H      0.9118     1.0000     0.0882     0.9575     0.9571     0.0004

  Mayer bond orders larger than 0.100000
B(  0-C ,  1-C ) :   1.1233 B(  0-C ,  2-C ) :   1.1184 B(  0-C ,  3-C ) :   1.1465 
B(  1-C ,  4-H ) :   0.9508 B(  1-C ,  5-H ) :   0.9522 B(  1-C ,  6-H ) :   0.9298 
B(  2-C ,  7-H ) :   0.9542 B(  2-C ,  8-H ) :   0.9358 B(  2-C ,  9-H ) :   0.9459 
B(  3-C , 10-H ) :   0.9302 B(  3-C , 11-H ) :   0.9486 B(  3-C , 12-H ) :   0.9465 


-------
TIMINGS
-------

Total SCF time: 0 days 0 hours 2 min 25 sec 

Total time                  ....     145.748 sec
Sum of individual times     ....     118.357 sec  ( 81.2%)

Fock matrix formation       ....      94.254 sec  ( 64.7%)
  XC integration            ....      47.944 sec  ( 50.9% of F)
    Basis function eval.    ....       0.599 sec  (  1.2% of XC)
    Density eval.           ....       0.392 sec  (  0.8% of XC)
    XC-Functional eval.     ....       0.259 sec  (  0.5% of XC)
    XC-Potential eval.      ....       0.514 sec  (  1.1% of XC)
Diagonalization             ....       0.024 sec  (  0.0%)
Density matrix formation    ....      11.888 sec  (  8.2%)
Population analysis         ....       6.790 sec  (  4.7%)
Initial guess               ....       0.005 sec  (  0.0%)
Orbital Transformation      ....       0.000 sec  (  0.0%)
Orbital Orthonormalization  ....       0.002 sec  (  0.0%)
DIIS solution               ....       1.935 sec  (  1.3%)
Grid generation             ....       3.462 sec  (  2.4%)


-------------------------------------------------------------------------------
                          DFT DISPERSION CORRECTION                            
                                                                               
                              DFTD3 V3.1  Rev 1                                
                          USING Becke-Johnson damping                          
-------------------------------------------------------------------------------
The B3LYP functional is recognized
Active option DFTDOPT                   ...         4   

molecular C6(AA) [au] = 1133.371598 


            DFT-D V3
 parameters
 s6 scaling factor         :     1.0000 
 a1 scaling factor         :     0.3981 
 s8 scaling factor         :     1.9889 
 a2 scaling factor         :     4.4211 
 ad hoc parameters k1-k3   :    16.0000     1.3333    -4.0000 

 Edisp/kcal,au: -8.657631177250  -0.013796812019 
 E6   /kcal   :  -4.288071619 
 E8   /kcal   :  -4.369559558 
 % E8         :  50.470613364 

-------------------------   ----------------
Dispersion correction           -0.013796812
-------------------------   ----------------


-------------------------   --------------------
FINAL SINGLE POINT ENERGY      -157.555649558353
-------------------------   --------------------

                                *** OPTIMIZATION RUN DONE ***

                            ***************************************
                            *     ORCA property calculations      *
                            ***************************************

                                    ---------------------
                                    Active property flags
                                    ---------------------
   (+) Dipole Moment


------------------------------------------------------------------------------
                       ORCA ELECTRIC PROPERTIES CALCULATION
------------------------------------------------------------------------------

Dipole Moment Calculation                       ... on
Quadrupole Moment Calculation                   ... off
Polarizability Calculation                      ... off
GBWName                                         ... orca5.gbw
Electron density file                           ... orca5.scfp
The origin for moment calculation is the CENTER OF MASS  = ( 0.015990, -0.033519 -0.170062)

-------------
DIPOLE MOMENT
-------------
                                X             Y             Z
Electronic contribution:     -0.06236      -0.02872       0.29330
Nuclear contribution   :      0.07865       0.02086      -0.33284
                        -----------------------------------------
Total Dipole Moment    :      0.01629      -0.00786      -0.03954
                        -----------------------------------------
Magnitude (a.u.)       :      0.04348
Magnitude (Debye)      :      0.11052



--------------------
Rotational spectrum 
--------------------
 
Rotational constants in cm-1:     0.266801     0.259956     0.142384 
Rotational constants in MHz :  7998.501576  7793.284891  4268.568376 

 Dipole components along the rotational axes: 
x,y,z [a.u.] :     0.007509    -0.007078    -0.042237 
x,y,z [Debye]:     0.019087    -0.017992    -0.107358 

 

Timings for individual modules:

Sum of individual times         ...     8160.556 sec (= 136.009 min)
GTO integral calculation        ...      207.652 sec (=   3.461 min)   2.5 %
SCF iterations                  ...     7673.596 sec (= 127.893 min)  94.0 %
SCF Gradient evaluation         ...      180.864 sec (=   3.014 min)   2.2 %
Geometry relaxation             ...       98.444 sec (=   1.641 min)   1.2 %
                             ****ORCA TERMINATED NORMALLY****
TOTAL RUN TIME: 0 days 2 hours 21 minutes 56 seconds 16 msec
