
                                 *****************
                                 * O   R   C   A *
                                 *****************

           --- An Ab Initio, DFT and Semiempirical electronic structure package ---

                  #######################################################
                  #                        -***-                        #
                  #          Department of theory and spectroscopy      #
                  #               Directorship: Frank Neese             #
                  #        Max Planck Institute fuer Kohlenforschung    #
                  #                Kaiser Wilhelm Platz 1               #
                  #                 D-45470 Muelheim/Ruhr               #
                  #                      Germany                        #
                  #                                                     #
                  #                  All rights reserved                #
                  #                        -***-                        #
                  #######################################################


                         Program Version 4.2.1 -  RELEASE  -


 With contributions from (in alphabetic order):
   Daniel Aravena         : Magnetic Suceptibility
   Michael Atanasov       : Ab Initio Ligand Field Theory (pilot matlab implementation)
   Alexander A. Auer      : GIAO ZORA, VPT2
   Ute Becker             : Parallelization
   Giovanni Bistoni       : ED, misc. LED, open-shell LED, HFLD
   Martin Brehm           : Molecular dynamics
   Dmytro Bykov           : SCF Hessian
   Vijay G. Chilkuri      : MRCI spin determinant printing, contributions to CSF-ICE
   Dipayan Datta          : RHF DLPNO-CCSD density
   Achintya Kumar Dutta   : EOM-CC, STEOM-CC
   Dmitry Ganyushin       : Spin-Orbit,Spin-Spin,Magnetic field MRCI
   Miquel Garcia          : C-PCM Hessian, Gaussian charge scheme
   Yang Guo               : DLPNO-NEVPT2, CIM, IAO-localization
   Andreas Hansen         : Spin unrestricted coupled pair/coupled cluster methods
   Benjamin Helmich-Paris : CASSCF linear response (MC-RPA)
   Lee Huntington         : MR-EOM, pCC
   Robert Izsak           : Overlap fitted RIJCOSX, COSX-SCS-MP3, EOM
   Christian Kollmar      : KDIIS, OOCD, Brueckner-CCSD(T), CCSD density
   Simone Kossmann        : Meta GGA functionals, TD-DFT gradient, OOMP2, MP2 Hessian
   Martin Krupicka        : AUTO-CI
   Lucas Lang             : DCDCAS
   Dagmar Lenk            : GEPOL surface, SMD
   Dimitrios Liakos       : Extrapolation schemes; Compound Job, initial MDCI parallelization
   Dimitrios Manganas     : Further ROCIS development; embedding schemes
   Dimitrios Pantazis     : SARC Basis sets
   Taras Petrenko         : DFT Hessian,TD-DFT gradient, ASA, ECA, R-Raman, ABS, FL, XAS/XES, NRVS
   Peter Pinski           : DLPNO-MP2, DLPNO-MP2 Gradient
   Christoph Reimann      : Effective Core Potentials
   Marius Retegan         : Local ZFS, SOC
   Christoph Riplinger    : Optimizer, TS searches, QM/MM, DLPNO-CCSD(T), (RO)-DLPNO pert. Triples
   Tobias Risthaus        : Range-separated hybrids, TD-DFT gradient, RPA, STAB
   Michael Roemelt        : Original ROCIS implementation
   Masaaki Saitow         : Open-shell DLPNO-CCSD energy and density
   Barbara Sandhoefer     : DKH picture change effects
   Avijit Sen             : IP-ROCIS
   Kantharuban Sivalingam : CASSCF convergence, NEVPT2, FIC-MRCI
   Bernardo de Souza      : ESD, SOC TD-DFT
   Georgi Stoychev        : AutoAux, RI-MP2 NMR
   Willem Van den Heuvel  : Paramagnetic NMR
   Boris Wezisla          : Elementary symmetry handling
   Frank Wennmohs         : Technical directorship


 We gratefully acknowledge several colleagues who have allowed us to
 interface, adapt or use parts of their codes:
   Stefan Grimme, W. Hujo, H. Kruse,             : VdW corrections, initial TS optimization,
                  C. Bannwarth                     DFT functionals, gCP, sTDA/sTD-DF
   Ed Valeev, F. Pavosevic, A. Kumar             : LibInt (2-el integral package), F12 methods
   Garnet Chan, S. Sharma, J. Yang, R. Olivares  : DMRG
   Ulf Ekstrom                                   : XCFun DFT Library
   Mihaly Kallay                                 : mrcc  (arbitrary order and MRCC methods)
   Andreas Klamt, Michael Diedenhofen            : otool_cosmo (COSMO solvation model)
   Jiri Pittner, Ondrej Demel                    : Mk-CCSD
   Frank Weinhold                                : gennbo (NPA and NBO analysis)
   Christopher J. Cramer and Donald G. Truhlar   : smd solvation model
   Lars Goerigk                                  : TD-DFT with DH, B97 family of functionals
   V. Asgeirsson, H. Jonsson                     : NEB implementation
   FAccTs GmbH                                   : IRC, NEB, NEB-TS, Multilevel, MM, QM/MM, CI optimization
   S Lehtola, MJT Oliveira, MAL Marques          : LibXC Library


 Your calculation uses the libint2 library for the computation of 2-el integrals
 For citations please refer to: http://libint.valeyev.net

 Your ORCA version has been built with support for libXC version: 4.2.3
 For citations please refer to: https://tddft.org/programs/libxc/

 This ORCA versions uses:
   CBLAS   interface :  Fast vector & matrix operations
   LAPACKE interface :  Fast linear algebra routines
   SCALAPACK package :  Parallel linear algebra routines


Your calculation utilizes the atom-pairwise dispersion correction
with the Becke-Johnson damping scheme (D3BJ)
Cite in your paper:
S.Grimme, S.Ehrlich, L.Goerigk, J Comput Chem, (2011), 32, 1456–1465 
S.Grimme, J.Antony, S.Ehrlich and H.Krieg, J.Chem.Phys., 132, (2010), 154104 
   

----- Orbital basis set information -----
Your calculation utilizes the basis: def2-SV(P)
   F. Weigend and R. Ahlrichs, Phys. Chem. Chem. Phys. 7, 3297 (2005).

----- AuxJ basis set information -----
Your calculation utilizes the auxiliary basis: def2/J
   F. Weigend, Phys. Chem. Chem. Phys. 8, 1057 (2006).

================================================================================
                                        WARNINGS
                       Please study these warnings very carefully!
================================================================================


WARNING: Geometry Optimization
  ===> : Switching off AutoStart
         For restart on a previous wavefunction, please use MOREAD

INFO   : the flag for use of LIBINT has been found!

================================================================================
                                       INPUT FILE
================================================================================
NAME = orca9.inp
|  1> ! UKS B3LYP def2-SV(P) def2/J D3BJ Opt
|  2> %scf Convergence VeryTight
|  3> SmearTemp 2000
|  4> maxiter 500
|  5> end
|  6> *xyz 0 2
|  7> C 0.014335 0.133011 0.331503
|  8> C -0.896459 1.134156 -0.320904
|  9> C 1.395599 0.109987 -0.247402
| 10> C -0.539714 -1.273797 0.304892
| 11> H -1.866118 1.098276 0.231732
| 12> H -0.481606 2.138623 -0.100059
| 13> H -1.08879 0.948749 -1.384881
| 14> H 1.565125 0.832498 -1.056706
| 15> H 1.673083 -0.90264 -0.636779
| 16> H 2.162445 0.326202 0.539492
| 17> H -1.345636 -1.412934 -0.433157
| 18> H -0.944143 -1.558993 1.309056
| 19> H 0.265764 -2.009744 0.056049
| 20> *
| 21> 
| 22>                          ****END OF INPUT****
================================================================================

                       *****************************
                       * Geometry Optimization Run *
                       *****************************

Geometry optimization settings:
Update method            Update   .... BFGS
Choice of coordinates    CoordSys .... Z-matrix Internals
Initial Hessian          InHess   .... Almoef's Model

Convergence Tolerances:
Energy Change            TolE     ....  5.0000e-06 Eh
Max. Gradient            TolMAXG  ....  3.0000e-04 Eh/bohr
RMS Gradient             TolRMSG  ....  1.0000e-04 Eh/bohr
Max. Displacement        TolMAXD  ....  4.0000e-03 bohr
RMS Displacement         TolRMSD  ....  2.0000e-03 bohr
Strict Convergence                ....  False
------------------------------------------------------------------------------
                        ORCA OPTIMIZATION COORDINATE SETUP
------------------------------------------------------------------------------

The optimization will be done in new redundant internal coordinates
Making redundant internal coordinates   ...  (new redundants) done
Evaluating the initial hessian          ...  (Almloef) done
Evaluating the coordinates              ...  done
Calculating the B-matrix                .... done
Calculating the G-matrix                .... done
Diagonalizing the G-matrix              .... done
The first mode is                       ....   18
The number of degrees of freedom        ....   33

    -----------------------------------------------------------------
                    Redundant Internal Coordinates


    -----------------------------------------------------------------
         Definition                    Initial Value    Approx d2E/dq
    -----------------------------------------------------------------
      1. B(C   1,C   0)                  1.5025         0.413305   
      2. B(C   2,C   0)                  1.4978         0.420409   
      3. B(C   3,C   0)                  1.5122         0.398801   
      4. B(H   4,C   1)                  1.1167         0.326503   
      5. B(H   5,C   1)                  1.1090         0.335851   
      6. B(H   6,C   1)                  1.0970         0.350955   
      7. B(H   7,C   2)                  1.0981         0.349595   
      8. B(H   8,C   2)                  1.1198         0.322721   
      9. B(H   9,C   2)                  1.1198         0.322732   
     10. B(H  10,C   3)                  1.1016         0.345041   
     11. B(H  11,C   3)                  1.1195         0.323134   
     12. B(H  12,C   3)                  1.1191         0.323617   
     13. A(C   1,C   0,C   3)          112.9633         0.373882   
     14. A(C   2,C   0,C   3)          108.4674         0.374983   
     15. A(C   1,C   0,C   2)          113.6675         0.377305   
     16. A(H   4,C   1,H   5)          104.7965         0.283324   
     17. A(H   5,C   1,H   6)          114.3191         0.286526   
     18. A(H   4,C   1,H   6)          108.8037         0.285268   
     19. A(C   0,C   1,H   4)          106.8630         0.324485   
     20. A(C   0,C   1,H   5)          106.8754         0.325995   
     21. A(C   0,C   1,H   6)          114.5072         0.328366   
     22. A(H   7,C   2,H   9)          106.5673         0.284581   
     23. A(C   0,C   2,H   9)          110.9123         0.324775   
     24. A(H   7,C   2,H   8)          107.4858         0.284579   
     25. A(C   0,C   2,H   8)          112.1350         0.324773   
     26. A(H   8,C   2,H   9)          104.4328         0.281072   
     27. A(C   0,C   2,H   7)          114.6524         0.329080   
     28. A(H  11,C   3,H  12)          106.9746         0.281247   
     29. A(H  10,C   3,H  12)          107.1292         0.284122   
     30. A(C   0,C   3,H  12)          110.6097         0.322120   
     31. A(H  10,C   3,H  11)          107.7269         0.284056   
     32. A(C   0,C   3,H  11)          110.7062         0.322041   
     33. A(C   0,C   3,H  10)          113.4109         0.325527   
     34. D(H   6,C   1,C   0,C   2)     62.6951         0.012644   
     35. D(H   4,C   1,C   0,C   2)   -176.7515         0.012644   
     36. D(H   6,C   1,C   0,C   3)    -61.4530         0.012644   
     37. D(H   5,C   1,C   0,C   2)    -64.9851         0.012644   
     38. D(H   4,C   1,C   0,C   3)     59.1005         0.012644   
     39. D(H   5,C   1,C   0,C   3)    170.8669         0.012644   
     40. D(H   7,C   2,C   0,C   1)      0.8543         0.013069   
     41. D(H   9,C   2,C   0,C   3)   -111.8541         0.013069   
     42. D(H   9,C   2,C   0,C   1)    121.5998         0.013069   
     43. D(H   8,C   2,C   0,C   3)      4.4720         0.013069   
     44. D(H   8,C   2,C   0,C   1)   -122.0741         0.013069   
     45. D(H   7,C   2,C   0,C   3)    127.4004         0.013069   
     46. D(H  11,C   3,C   0,C   1)   -103.5847         0.011806   
     47. D(H  10,C   3,C   0,C   2)   -109.3147         0.011806   
     48. D(H  10,C   3,C   0,C   1)     17.6379         0.011806   
     49. D(H  12,C   3,C   0,C   2)     11.0644         0.011806   
     50. D(H  12,C   3,C   0,C   1)    138.0169         0.011806   
     51. D(H  11,C   3,C   0,C   2)    129.4627         0.011806   
    -----------------------------------------------------------------

Number of atoms                         .... 13
Number of degrees of freedom            .... 51

Time needed for optimization step       :     2.82 sec

         *************************************************************
         *                GEOMETRY OPTIMIZATION CYCLE   1            *
         *************************************************************
---------------------------------
CARTESIAN COORDINATES (ANGSTROEM)
---------------------------------
  C      0.014335    0.133011    0.331503
  C     -0.896459    1.134156   -0.320904
  C      1.395599    0.109987   -0.247402
  C     -0.539714   -1.273797    0.304892
  H     -1.866118    1.098276    0.231732
  H     -0.481606    2.138623   -0.100059
  H     -1.088790    0.948749   -1.384881
  H      1.565125    0.832498   -1.056706
  H      1.673083   -0.902640   -0.636779
  H      2.162445    0.326202    0.539492
  H     -1.345636   -1.412934   -0.433157
  H     -0.944143   -1.558993    1.309056
  H      0.265764   -2.009744    0.056049

----------------------------
CARTESIAN COORDINATES (A.U.)
----------------------------
  NO LB      ZA    FRAG     MASS         X           Y           Z
   0 C     6.0000    0    12.011    0.027089    0.251354    0.626450
   1 C     6.0000    0    12.011   -1.694062    2.143244   -0.606421
   2 C     6.0000    0    12.011    2.637300    0.207845   -0.467522
   3 C     6.0000    0    12.011   -1.019912   -2.407127    0.576162
   4 H     1.0000    0     1.008   -3.526452    2.075441    0.437910
   5 H     1.0000    0     1.008   -0.910103    4.041412   -0.189084
   6 H     1.0000    0     1.008   -2.057515    1.792876   -2.617046
   7 H     1.0000    0     1.008    2.957658    1.573193   -1.996885
   8 H     1.0000    0     1.008    3.161669   -1.705742   -1.203338
   9 H     1.0000    0     1.008    4.086429    0.616432    1.019492
  10 H     1.0000    0     1.008   -2.542884   -2.670058   -0.818548
  11 H     1.0000    0     1.008   -1.784172   -2.946070    2.473757
  12 H     1.0000    0     1.008    0.502221   -3.797866    0.105917

--------------------------------
INTERNAL COORDINATES (ANGSTROEM)
--------------------------------
 C      0   0   0     0.000000000000     0.00000000     0.00000000
 C      1   0   0     1.502488574036     0.00000000     0.00000000
 C      1   2   0     1.497848904695   113.66752426     0.00000000
 C      1   2   3     1.512212679680   112.96329058   235.85194277
 H      2   1   3     1.116661318027   106.86300062   183.24854270
 H      2   1   3     1.108976771498   106.87539894   295.01492160
 H      2   1   3     1.097002290672   114.50723620    62.69506507
 H      3   1   2     1.098059276275   114.65238516     0.85425963
 H      3   1   2     1.119832692644   112.13501385   237.92592800
 H      3   1   2     1.119823147277   110.91228231   121.59977593
 H      4   1   2     1.101628658512   113.41094835    17.63786487
 H      4   1   2     1.119484217554   110.70617802   256.41529983
 H      4   1   2     1.119078028532   110.60968734   138.01694353

---------------------------
INTERNAL COORDINATES (A.U.)
---------------------------
 C      0   0   0     0.000000000000     0.00000000     0.00000000
 C      1   0   0     2.839291924275     0.00000000     0.00000000
 C      1   2   0     2.830524219868   113.66752426     0.00000000
 C      1   2   3     2.857667820839   112.96329058   235.85194277
 H      2   1   3     2.110184075414   106.86300062   183.24854270
 H      2   1   3     2.095662387012   106.87539894   295.01492160
 H      2   1   3     2.073033897654   114.50723620    62.69506507
 H      3   1   2     2.075031310971   114.65238516     0.85425963
 H      3   1   2     2.116177104909   112.13501385   237.92592800
 H      3   1   2     2.116159066779   110.91228231   121.59977593
 H      4   1   2     2.081776465866   113.41094835    17.63786487
 H      4   1   2     2.115518582425   110.70617802   256.41529983
 H      4   1   2     2.114750996413   110.60968734   138.01694353

---------------------
BASIS SET INFORMATION
---------------------
There are 2 groups of distinct atoms

 Group   1 Type C   : 7s4p1d contracted to 3s2p1d pattern {511/31/1}
 Group   2 Type H   : 4s contracted to 2s pattern {31}

Atom   0C    basis set group =>   1
Atom   1C    basis set group =>   1
Atom   2C    basis set group =>   1
Atom   3C    basis set group =>   1
Atom   4H    basis set group =>   2
Atom   5H    basis set group =>   2
Atom   6H    basis set group =>   2
Atom   7H    basis set group =>   2
Atom   8H    basis set group =>   2
Atom   9H    basis set group =>   2
Atom  10H    basis set group =>   2
Atom  11H    basis set group =>   2
Atom  12H    basis set group =>   2
---------------------------------
AUXILIARY/J BASIS SET INFORMATION
---------------------------------
There are 2 groups of distinct atoms

 Group   1 Type C   : 12s5p4d2f1g contracted to 6s4p3d1f1g pattern {711111/2111/211/2/1}
 Group   2 Type H   : 5s2p1d contracted to 3s1p1d pattern {311/2/1}

Atom   0C    basis set group =>   1
Atom   1C    basis set group =>   1
Atom   2C    basis set group =>   1
Atom   3C    basis set group =>   1
Atom   4H    basis set group =>   2
Atom   5H    basis set group =>   2
Atom   6H    basis set group =>   2
Atom   7H    basis set group =>   2
Atom   8H    basis set group =>   2
Atom   9H    basis set group =>   2
Atom  10H    basis set group =>   2
Atom  11H    basis set group =>   2
Atom  12H    basis set group =>   2
------------------------------------------------------------------------------
                           ORCA GTO INTEGRAL CALCULATION
------------------------------------------------------------------------------

                         BASIS SET STATISTICS AND STARTUP INFO

 # of primitive gaussian shells          ...   84
 # of primitive gaussian functions       ...  132
 # of contracted shells                  ...   42
 # of contracted basis functions         ...   74
 Highest angular momentum                ...    2
 Maximum contraction depth               ...    5
 Integral package used                   ... LIBINT
 Integral threshhold            Thresh   ...  1.000e-12
 Primitive cut-off              TCut     ...  1.000e-14


------------------------------ INTEGRAL EVALUATION ----------------------------


 * One electron integrals 
 Pre-screening matrix                    ... done
 Shell pair data                         ... done (   0.000 sec)

-------------------------------------------------------------------------------
                                 ORCA SCF
-------------------------------------------------------------------------------

------------
SCF SETTINGS
------------
Hamiltonian:
 Density Functional     Method          .... DFT(GTOs)
 Exchange Functional    Exchange        .... B88
   X-Alpha parameter    XAlpha          ....  0.666667
   Becke's b parameter  XBeta           ....  0.004200
 Correlation Functional Correlation     .... LYP
 LDA part of GGA corr.  LDAOpt          .... VWN-5
 Gradients option       PostSCFGGA      .... off
 Hybrid DFT is turned on
   Fraction HF Exchange ScalHFX         ....  0.200000
   Scaling of DF-GGA-X  ScalDFX         ....  0.720000
   Scaling of DF-GGA-C  ScalDFC         ....  0.810000
   Scaling of DF-LDA-C  ScalLDAC        ....  1.000000
   Perturbative correction              ....  0.000000
   Density functional embedding theory  .... OFF
   NL short-range parameter             ....  4.800000


General Settings:
 Integral files         IntName         .... orca9
 Hartree-Fock type      HFTyp           .... UHF
 Total Charge           Charge          ....    0
 Multiplicity           Mult            ....    2
 Number of Electrons    NEL             ....   33
 Basis Dimension        Dim             ....   74
 Nuclear Repulsion      ENuc            ....    126.1118741852 Eh

Convergence Acceleration:
 DIIS                   CNVDIIS         .... on
   Start iteration      DIISMaxIt       ....    12
   Startup error        DIISStart       ....  0.200000
   # of expansion vecs  DIISMaxEq       ....     5
   Bias factor          DIISBfac        ....   1.050
   Max. coefficient     DIISMaxC        ....  10.000
 Newton-Raphson         CNVNR           .... off
 SOSCF                  CNVSOSCF        .... off
 Level Shifting         CNVShift        .... on
   Level shift para.    LevelShift      ....    0.2500
   Turn off err/grad.   ShiftErr        ....    0.0010
 Zerner damping         CNVZerner       .... off
 Static damping         CNVDamp         .... on
   Fraction old density DampFac         ....    0.7000
   Max. Damping (<1)    DampMax         ....    0.9800
   Min. Damping (>=0)   DampMin         ....    0.0000
   Turn off err/grad.   DampErr         ....    0.1000
 Fernandez-Rico         CNVRico         .... off

SCF Procedure:
 Maximum # iterations   MaxIter         ....   500
 SCF integral mode      SCFMode         .... Direct
   Integral package                     .... LIBINT
 Reset frequency        DirectResetFreq ....    20
 Integral Threshold     Thresh          ....  1.000e-12 Eh
 Primitive CutOff       TCut            ....  1.000e-14 Eh

Convergence Tolerance:
 Convergence Check Mode ConvCheckMode   .... Total+1el-Energy
 Convergence forced     ConvForced      .... 0
 Energy Change          TolE            ....  1.000e-09 Eh
 1-El. energy change                    ....  1.000e-06 Eh
 DIIS Error             TolErr          ....  1.000e-08


Diagonalization of the overlap matrix:
Smallest eigenvalue                        ... 2.090e-03
Time for diagonalization                   ...    0.001 sec
Threshold for overlap eigenvalues          ... 1.000e-08
Number of eigenvalues below threshold      ... 0
Time for construction of square roots      ...    1.210 sec
Total time needed                          ...    1.211 sec

-------------------
DFT GRID GENERATION
-------------------

General Integration Accuracy     IntAcc      ...  4.340
Radial Grid Type                 RadialGrid  ... Gauss-Chebyshev
Angular Grid (max. acc.)         AngularGrid ... Lebedev-110
Angular grid pruning method      GridPruning ... 3 (G Style)
Weight generation scheme         WeightScheme... Becke
Basis function cutoff            BFCut       ...    1.0000e-12
Integration weight cutoff        WCut        ...    1.0000e-14
Grids for H and He will be reduced by one unit

# of grid points (after initial pruning)     ...  13770 (   0.0 sec)
# of grid points (after weights+screening)   ...  12890 (   0.0 sec)
nearest neighbour list constructed           ...    0.0 sec
Grid point re-assignment to atoms done       ...    0.0 sec
Grid point division into batches done        ...    0.0 sec
Reduced shell lists constructed in    0.1 sec

Total number of grid points                  ...    12890
Total number of batches                      ...      209
Average number of points per batch           ...       61
Average number of grid points per atom       ...      992
Average number of shells per batch           ...    37.19 (88.54%)
Average number of basis functions per batch  ...    66.35 (89.66%)
Average number of large shells per batch     ...    32.35 (86.99%)
Average number of large basis fcns per batch ...    57.44 (86.58%)
Maximum spatial batch extension              ...  20.90, 20.34, 20.87 au
Average spatial batch extension              ...   3.97,  3.96,  3.87 au

Time for grid setup =    0.425 sec

------------------------------
INITIAL GUESS: MODEL POTENTIAL
------------------------------
Loading Hartree-Fock densities                     ... done
Calculating cut-offs                               ... done
Setting up the integral package                    ... done
Initializing the effective Hamiltonian             ... done
Starting the Coulomb interaction                   ... done (   0.0 sec)
Reading the grid                                   ... done
Mapping shells                                     ... done
Starting the XC term evaluation                    ... done (   0.1 sec)
  promolecular density results
     # of electrons  =     32.995359461
     EX              =    -23.185295735
     EC              =     -1.031263021
     EX+EC           =    -24.216558756
Transforming the Hamiltonian                       ... done (   0.0 sec)
Diagonalizing the Hamiltonian                      ... done (   0.0 sec)
Back transforming the eigenvectors                 ... done (   0.0 sec)
Now organizing SCF variables                       ... done
                      ------------------
                      INITIAL GUESS DONE (   0.7 sec)
                      ------------------
--------------
SCF ITERATIONS
--------------
ITER       Energy         Delta-E        Max-DP      RMS-DP      [F,P]     Damp
               ***  Starting incremental Fock matrix formation  ***
  0   -157.3563370931   0.000000000000 0.04250569  0.00227560  0.1704431 0.7000
  1   -157.4317484343  -0.075411341272 0.02647407  0.00165430  0.0886399 0.7000
                               ***Turning on DIIS***
  2   -157.4621909905  -0.030442556175 0.04244106  0.00267658  0.0330973 0.0000
  3   -157.5028641046  -0.040673114074 0.01995392  0.00119856  0.0486819 0.0000
  4   -157.5166474556  -0.013783351029 0.00373001  0.00034826  0.0105946 0.0000
  5   -157.5174105698  -0.000763114179 0.00191371  0.00013381  0.0021222 0.0000
  6   -157.5174702383  -0.000059668449 0.00126489  0.00008338  0.0005496 0.0000
  7   -157.5174796542  -0.000009415961 0.00039367  0.00001354  0.0002571 0.0000
  8   -157.5174803107  -0.000000656488 0.00017094  0.00000516  0.0000905 0.0000
  9   -157.5174804556  -0.000000144927 0.00003987  0.00000176  0.0000163 0.0000
 10   -157.5174804690  -0.000000013402 0.00001442  0.00000060  0.0000047 0.0000
 11   -157.5174804711  -0.000000002060 0.00000617  0.00000028  0.0000021 0.0000
 12   -157.5174804716  -0.000000000481 0.00000210  0.00000010  0.0000014 0.0000
 13   -157.5174804717  -0.000000000100 0.00000208  0.00000010  0.0000005 0.0000
 14   -157.5174804717  -0.000000000036 0.00000033  0.00000002  0.0000002 0.0000
 15   -157.5174804717   0.000000000002 0.00000032  0.00000002  0.0000001 0.0000
                 **** Energy Check signals convergence ****

 Fermi smearing  (ALPHA): E(HOMO(Eh)) = -0.321559 MUE = -0.069959 gap=   7.028 eV
 Fermi smearing   (BETA): E(HOMO(Eh)) = -0.315888 MUE = -0.181728 gap=   7.266 eV

N_FOD(alpha) =  0.000000
 N_FOD(beta) =  0.000000
       N_FOD =  0.000000

               *****************************************************
               *                     SUCCESS                       *
               *           SCF CONVERGED AFTER  16 CYCLES          *
               *****************************************************

Setting up the final grid:

General Integration Accuracy     IntAcc      ...  4.670
Radial Grid Type                 RadialGrid  ... Gauss-Chebyshev
Angular Grid (max. acc.)         AngularGrid ... Lebedev-302
Angular grid pruning method      GridPruning ... 3 (G Style)
Weight generation scheme         WeightScheme... Becke
Basis function cutoff            BFCut       ...    1.0000e-12
Integration weight cutoff        WCut        ...    1.0000e-14
Grids for H and He will be reduced by one unit

# of grid points (after initial pruning)     ...  55394 (   0.0 sec)
# of grid points (after weights+screening)   ...  51271 (   0.1 sec)
nearest neighbour list constructed           ...    0.0 sec
Grid point re-assignment to atoms done       ...    0.0 sec
Grid point division into batches done        ...    0.2 sec
Reduced shell lists constructed in    0.4 sec

Total number of grid points                  ...    51271
Total number of batches                      ...      808
Average number of points per batch           ...       63
Average number of grid points per atom       ...     3944
Average number of shells per batch           ...    34.86 (83.01%)
Average number of basis functions per batch  ...    61.95 (83.72%)
Average number of large shells per batch     ...    29.56 (84.79%)
Average number of large basis fcns per batch ...    52.07 (84.05%)
Maximum spatial batch extension              ...  18.63, 18.89, 20.48 au
Average spatial batch extension              ...   2.67,  2.64,  2.62 au

Final grid set up in    1.3 sec
Final integration                            ... done (   3.0 sec)
Change in XC energy                          ...    -0.000235126
Integrated number of electrons               ...    33.000013900
Previous integrated no of electrons          ...    32.999169513

----------------
TOTAL SCF ENERGY
----------------

Total Energy       :         -157.51771560 Eh           -4286.27495 eV

Components:
Nuclear Repulsion  :          126.11187419 Eh            3431.67856 eV
Electronic Energy  :         -283.62958978 Eh           -7717.95351 eV
One Electron Energy:         -459.81830120 Eh          -12512.29209 eV
Two Electron Energy:          176.18871142 Eh            4794.33858 eV

Virial components:
Potential Energy   :         -313.38067282 Eh           -8527.52164 eV
Kinetic Energy     :          155.86295723 Eh            4241.24669 eV
Virial Ratio       :            2.01061675


DFT components:
N(Alpha)           :       17.000008059967 electrons
N(Beta)            :       16.000005839666 electrons
N(Total)           :       33.000013899633 electrons
E(X)               :      -18.882130679580 Eh       
E(C)               :       -1.221977031735 Eh       
E(XC)              :      -20.104107711316 Eh       
DFET-embed. en.    :        0.000000000000 Eh       

---------------
SCF CONVERGENCE
---------------

  Last Energy change         ...    1.9128e-11  Tolerance :   1.0000e-09
  Last MAX-Density change    ...    2.0932e-07  Tolerance :   1.0000e-08
  Last RMS-Density change    ...    1.5161e-08  Tolerance :   1.0000e-09
  Last DIIS Error            ...    1.7674e-08  Tolerance :   1.0000e-08

             **** THE GBW FILE WAS UPDATED (orca9.gbw) ****
             **** DENSITY FILE WAS UPDATED (orca9.scfp) ****
             **** ENERGY FILE WAS UPDATED (orca9.en.tmp) ****
             **** THE GBW FILE WAS UPDATED (orca9.gbw) ****
             **** DENSITY FILE WAS UPDATED (orca9.scfp) ****
----------------
ORBITAL ENERGIES
----------------
                 SPIN UP ORBITALS
  NO   OCC          E(Eh)            E(eV) 
   0   1.0000     -10.189373      -277.2669 
   1   1.0000     -10.168912      -276.7102 
   2   1.0000     -10.167071      -276.6601 
   3   1.0000     -10.166013      -276.6313 
   4   1.0000      -0.796951       -21.6861 
   5   1.0000      -0.677934       -18.4475 
   6   1.0000      -0.669156       -18.2087 
   7   1.0000      -0.527529       -14.3548 
   8   1.0000      -0.447109       -12.1664 
   9   1.0000      -0.437199       -11.8968 
  10   1.0000      -0.427348       -11.6287 
  11   1.0000      -0.397260       -10.8100 
  12   1.0000      -0.386224       -10.5097 
  13   1.0000      -0.347833        -9.4650 
  14   1.0000      -0.331172        -9.0116 
  15   1.0000      -0.321559        -8.7501 
  16   1.0000      -0.199097        -5.4177 
  17   0.0000       0.059180         1.6104 
  18   0.0000       0.100338         2.7303 
  19   0.0000       0.109330         2.9750 
  20   0.0000       0.114549         3.1170 
  21   0.0000       0.126265         3.4358 
  22   0.0000       0.136790         3.7222 
  23   0.0000       0.140424         3.8211 
  24   0.0000       0.151165         4.1134 
  25   0.0000       0.170148         4.6300 
  26   0.0000       0.208869         5.6836 
  27   0.0000       0.285504         7.7690 
  28   0.0000       0.290352         7.9009 
  29   0.0000       0.414032        11.2664 
  30   0.0000       0.425203        11.5704 
  31   0.0000       0.459888        12.5142 
  32   0.0000       0.497445        13.5362 
  33   0.0000       0.508870        13.8470 
  34   0.0000       0.521920        14.2022 
  35   0.0000       0.558281        15.1916 
  36   0.0000       0.591071        16.0839 
  37   0.0000       0.603023        16.4091 
  38   0.0000       0.639275        17.3956 
  39   0.0000       0.667984        18.1768 
  40   0.0000       0.673259        18.3203 
  41   0.0000       0.680693        18.5226 
  42   0.0000       0.690374        18.7860 
  43   0.0000       0.692161        18.8347 
  44   0.0000       0.711945        19.3730 
  45   0.0000       0.722430        19.6583 
  46   0.0000       0.732862        19.9422 
  47   0.0000       0.745275        20.2800 
  48   0.0000       0.753658        20.5081 
  49   0.0000       0.769468        20.9383 
  50   0.0000       0.777648        21.1609 
  51   0.0000       0.904685        24.6177 
  52   0.0000       0.952034        25.9062 
  53   0.0000       0.983467        26.7615 
  54   0.0000       1.391721        37.8707 
  55   0.0000       1.403911        38.2024 
  56   0.0000       1.754262        47.7359 
  57   0.0000       1.774593        48.2891 
  58   0.0000       1.796272        48.8790 
  59   0.0000       1.823425        49.6179 
  60   0.0000       1.872162        50.9441 
  61   0.0000       1.936440        52.6932 
  62   0.0000       1.967140        53.5286 
  63   0.0000       2.039681        55.5026 
  64   0.0000       2.064280        56.1719 
  65   0.0000       2.134696        58.0880 
  66   0.0000       2.162473        58.8439 
  67   0.0000       2.189268        59.5730 
  68   0.0000       2.208183        60.0877 
  69   0.0000       2.425400        65.9985 
  70   0.0000       2.441086        66.4253 
  71   0.0000       2.459495        66.9263 
  72   0.0000       2.708841        73.7113 
  73   0.0000       2.720766        74.0358 

                 SPIN DOWN ORBITALS
  NO   OCC          E(Eh)            E(eV) 
   0   1.0000     -10.174457      -276.8610 
   1   1.0000     -10.169314      -276.7211 
   2   1.0000     -10.167515      -276.6721 
   3   1.0000     -10.166488      -276.6442 
   4   1.0000      -0.781756       -21.2727 
   5   1.0000      -0.675294       -18.3757 
   6   1.0000      -0.666522       -18.1370 
   7   1.0000      -0.509738       -13.8707 
   8   1.0000      -0.434942       -11.8354 
   9   1.0000      -0.429023       -11.6743 
  10   1.0000      -0.423254       -11.5173 
  11   1.0000      -0.390896       -10.6368 
  12   1.0000      -0.380698       -10.3593 
  13   1.0000      -0.346507        -9.4289 
  14   1.0000      -0.325456        -8.8561 
  15   1.0000      -0.315888        -8.5957 
  16   0.0000      -0.048868        -1.3298 
  17   0.0000       0.061497         1.6734 
  18   0.0000       0.101483         2.7615 
  19   0.0000       0.110506         3.0070 
  20   0.0000       0.116858         3.1799 
  21   0.0000       0.131468         3.5774 
  22   0.0000       0.137929         3.7532 
  23   0.0000       0.144448         3.9306 
  24   0.0000       0.153488         4.1766 
  25   0.0000       0.173288         4.7154 
  26   0.0000       0.217535         5.9194 
  27   0.0000       0.295563         8.0427 
  28   0.0000       0.299802         8.1580 
  29   0.0000       0.415885        11.3168 
  30   0.0000       0.431845        11.7511 
  31   0.0000       0.469650        12.7798 
  32   0.0000       0.509017        13.8511 
  33   0.0000       0.516251        14.0479 
  34   0.0000       0.559164        15.2156 
  35   0.0000       0.575896        15.6709 
  36   0.0000       0.601446        16.3662 
  37   0.0000       0.609204        16.5773 
  38   0.0000       0.648351        17.6425 
  39   0.0000       0.669450        18.2167 
  40   0.0000       0.677754        18.4426 
  41   0.0000       0.683796        18.6070 
  42   0.0000       0.691939        18.8286 
  43   0.0000       0.693905        18.8821 
  44   0.0000       0.713317        19.4103 
  45   0.0000       0.725259        19.7353 
  46   0.0000       0.735140        20.0042 
  47   0.0000       0.745988        20.2994 
  48   0.0000       0.759366        20.6634 
  49   0.0000       0.778544        21.1853 
  50   0.0000       0.786249        21.3949 
  51   0.0000       0.913270        24.8513 
  52   0.0000       0.959857        26.1190 
  53   0.0000       0.987416        26.8690 
  54   0.0000       1.407955        38.3124 
  55   0.0000       1.420707        38.6594 
  56   0.0000       1.757703        47.8295 
  57   0.0000       1.794408        48.8283 
  58   0.0000       1.812655        49.3249 
  59   0.0000       1.827988        49.7421 
  60   0.0000       1.882443        51.2239 
  61   0.0000       1.947612        52.9972 
  62   0.0000       1.983265        53.9674 
  63   0.0000       2.048789        55.7504 
  64   0.0000       2.070662        56.3456 
  65   0.0000       2.135553        58.1114 
  66   0.0000       2.163132        58.8618 
  67   0.0000       2.192731        59.6673 
  68   0.0000       2.211207        60.1700 
  69   0.0000       2.450027        66.6686 
  70   0.0000       2.466719        67.1228 
  71   0.0000       2.483764        67.5867 
  72   0.0000       2.721970        74.0686 
  73   0.0000       2.734117        74.3991 

                    ********************************
                    * MULLIKEN POPULATION ANALYSIS *
                    ********************************

------------------------------------------
FOD BASED MULLIKEN REDUCED ORBITAL CHARGES
------------------------------------------
  0 C s       :     0.000000  s :     0.000000
      pz      :     0.000000  p :     0.000000
      px      :     0.000000
      py      :     0.000000
      dz2     :     0.000000  d :     0.000000
      dxz     :     0.000000
      dyz     :     0.000000
      dx2y2   :     0.000000
      dxy     :     0.000000
  1 C s       :    -0.000000  s :    -0.000000
      pz      :     0.000000  p :     0.000000
      px      :     0.000000
      py      :     0.000000
      dz2     :     0.000000  d :     0.000000
      dxz     :     0.000000
      dyz     :     0.000000
      dx2y2   :     0.000000
      dxy     :     0.000000
  2 C s       :    -0.000000  s :    -0.000000
      pz      :     0.000000  p :     0.000000
      px      :     0.000000
      py      :     0.000000
      dz2     :     0.000000  d :     0.000000
      dxz     :     0.000000
      dyz     :     0.000000
      dx2y2   :     0.000000
      dxy     :     0.000000
  3 C s       :    -0.000000  s :    -0.000000
      pz      :     0.000000  p :     0.000000
      px      :     0.000000
      py      :     0.000000
      dz2     :     0.000000  d :     0.000000
      dxz     :     0.000000
      dyz     :     0.000000
      dx2y2   :     0.000000
      dxy     :     0.000000
  4 H s       :     0.000000  s :     0.000000
  5 H s       :     0.000000  s :     0.000000
  6 H s       :     0.000000  s :     0.000000
  7 H s       :     0.000000  s :     0.000000
  8 H s       :     0.000000  s :     0.000000
  9 H s       :     0.000000  s :     0.000000
 10 H s       :     0.000000  s :     0.000000
 11 H s       :     0.000000  s :     0.000000
 12 H s       :     0.000000  s :     0.000000


                     *******************************
                     * LOEWDIN POPULATION ANALYSIS *
                     *******************************

-------------------------------------------
LOEWDIN ATOMIC CHARGES AND SPIN POPULATIONS
-------------------------------------------
   0 C :   -0.075300    0.839810
   1 C :   -0.316152   -0.008249
   2 C :   -0.319822   -0.010578
   3 C :   -0.317949   -0.010614
   4 H :    0.110938    0.007480
   5 H :    0.114669    0.007620
   6 H :    0.118935    0.046355
   7 H :    0.112268    0.014184
   8 H :    0.110791    0.018217
   9 H :    0.120535    0.035148
  10 H :    0.115081    0.027695
  11 H :    0.117240    0.027278
  12 H :    0.108766    0.005654

----------------------------------------------------
LOEWDIN REDUCED ORBITAL CHARGES AND SPIN POPULATIONS
----------------------------------------------------
CHARGE
  0 C s       :     2.929681  s :     2.929681
      pz      :     0.976186  p :     3.051734
      px      :     1.041495
      py      :     1.034053
      dz2     :     0.009588  d :     0.093885
      dxz     :     0.018465
      dyz     :     0.011313
      dx2y2   :     0.029423
      dxy     :     0.025096
  1 C s       :     2.953393  s :     2.953393
      pz      :     1.094734  p :     3.285232
      px      :     1.095790
      py      :     1.094708
      dz2     :     0.021471  d :     0.077527
      dxz     :     0.015799
      dyz     :     0.008145
      dx2y2   :     0.018646
      dxy     :     0.013467
  2 C s       :     2.957054  s :     2.957054
      pz      :     1.101505  p :     3.285917
      px      :     1.078506
      py      :     1.105906
      dz2     :     0.007074  d :     0.076851
      dxz     :     0.022502
      dyz     :     0.017298
      dx2y2   :     0.019378
      dxy     :     0.010599
  3 C s       :     2.961410  s :     2.961410
      pz      :     1.107987  p :     3.281172
      px      :     1.104680
      py      :     1.068505
      dz2     :     0.013149  d :     0.075367
      dxz     :     0.018161
      dyz     :     0.010975
      dx2y2   :     0.012465
      dxy     :     0.020618
  4 H s       :     0.889062  s :     0.889062
  5 H s       :     0.885331  s :     0.885331
  6 H s       :     0.881065  s :     0.881065
  7 H s       :     0.887732  s :     0.887732
  8 H s       :     0.889209  s :     0.889209
  9 H s       :     0.879465  s :     0.879465
 10 H s       :     0.884919  s :     0.884919
 11 H s       :     0.882760  s :     0.882760
 12 H s       :     0.891234  s :     0.891234

SPIN
  0 C s       :     0.082741  s :     0.082741
      pz      :     0.667792  p :     0.759996
      px      :     0.022829
      py      :     0.069375
      dz2     :    -0.000020  d :    -0.002926
      dxz     :    -0.001157
      dyz     :    -0.000406
      dx2y2   :    -0.000702
      dxy     :    -0.000641
  1 C s       :    -0.000734  s :    -0.000734
      pz      :    -0.007613  p :    -0.020474
      px      :    -0.005247
      py      :    -0.007615
      dz2     :     0.007343  d :     0.012960
      dxz     :     0.003358
      dyz     :     0.000817
      dx2y2   :     0.000587
      dxy     :     0.000855
  2 C s       :    -0.001925  s :    -0.001925
      pz      :    -0.004843  p :    -0.021953
      px      :    -0.012013
      py      :    -0.005096
      dz2     :     0.001894  d :     0.013299
      dxz     :     0.007146
      dyz     :     0.000240
      dx2y2   :     0.003056
      dxy     :     0.000962
  3 C s       :    -0.001357  s :    -0.001357
      pz      :    -0.007140  p :    -0.021484
      px      :    -0.004756
      py      :    -0.009588
      dz2     :     0.000465  d :     0.012227
      dxz     :     0.003407
      dyz     :     0.007468
      dx2y2   :     0.000464
      dxy     :     0.000423
  4 H s       :     0.007480  s :     0.007480
  5 H s       :     0.007620  s :     0.007620
  6 H s       :     0.046355  s :     0.046355
  7 H s       :     0.014184  s :     0.014184
  8 H s       :     0.018217  s :     0.018217
  9 H s       :     0.035148  s :     0.035148
 10 H s       :     0.027695  s :     0.027695
 11 H s       :     0.027278  s :     0.027278
 12 H s       :     0.005654  s :     0.005654


                      *****************************
                      * MAYER POPULATION ANALYSIS *
                      *****************************

  NA   - Mulliken gross atomic population
  ZA   - Total nuclear charge
  QA   - Mulliken gross atomic charge
  VA   - Mayer's total valence
  BVA  - Mayer's bonded valence
  FA   - Mayer's free valence

  ATOM       NA         ZA         QA         VA         BVA        FA
  0 C      6.0875     6.0000    -0.0875     4.1461     3.4125     0.7336
  1 C      6.2362     6.0000    -0.2362     3.9583     3.9556     0.0027
  2 C      6.2647     6.0000    -0.2647     3.9123     3.9097     0.0027
  3 C      6.2687     6.0000    -0.2687     3.9169     3.9144     0.0025
  4 H      0.9122     1.0000     0.0878     0.9538     0.9538     0.0001
  5 H      0.9050     1.0000     0.0950     0.9546     0.9545     0.0001
  6 H      0.8957     1.0000     0.1043     0.9549     0.9513     0.0035
  7 H      0.9091     1.0000     0.0909     0.9632     0.9628     0.0004
  8 H      0.9093     1.0000     0.0907     0.9630     0.9624     0.0006
  9 H      0.8976     1.0000     0.1024     0.9492     0.9477     0.0015
 10 H      0.9049     1.0000     0.0951     0.9615     0.9602     0.0013
 11 H      0.9003     1.0000     0.0997     0.9519     0.9510     0.0009
 12 H      0.9089     1.0000     0.0911     0.9632     0.9631     0.0001

  Mayer bond orders larger than 0.100000
B(  0-C ,  1-C ) :   1.1289 B(  0-C ,  2-C ) :   1.0862 B(  0-C ,  3-C ) :   1.0826 
B(  1-C ,  4-H ) :   0.9567 B(  1-C ,  5-H ) :   0.9527 B(  1-C ,  6-H ) :   0.9260 
B(  2-C ,  7-H ) :   0.9523 B(  2-C ,  8-H ) :   0.9497 B(  2-C ,  9-H ) :   0.9421 
B(  3-C , 10-H ) :   0.9455 B(  3-C , 11-H ) :   0.9468 B(  3-C , 12-H ) :   0.9561 


-------
TIMINGS
-------

Total SCF time: 0 days 0 hours 2 min 9 sec 

Total time                  ....     129.389 sec
Sum of individual times     ....     105.505 sec  ( 81.5%)

Fock matrix formation       ....      92.414 sec  ( 71.4%)
  XC integration            ....      42.141 sec  ( 45.6% of F)
    Basis function eval.    ....       0.863 sec  (  2.0% of XC)
    Density eval.           ....       0.643 sec  (  1.5% of XC)
    XC-Functional eval.     ....       0.371 sec  (  0.9% of XC)
    XC-Potential eval.      ....       0.941 sec  (  2.2% of XC)
Diagonalization             ....       0.666 sec  (  0.5%)
Density matrix formation    ....       5.737 sec  (  4.4%)
Population analysis         ....       1.306 sec  (  1.0%)
Initial guess               ....       0.262 sec  (  0.2%)
Orbital Transformation      ....       0.000 sec  (  0.0%)
Orbital Orthonormalization  ....       0.000 sec  (  0.0%)
DIIS solution               ....       3.399 sec  (  2.6%)
Grid generation             ....       1.720 sec  (  1.3%)


-------------------------------------------------------------------------------
                          DFT DISPERSION CORRECTION                            
                                                                               
                              DFTD3 V3.1  Rev 1                                
                          USING Becke-Johnson damping                          
-------------------------------------------------------------------------------
The B3LYP functional is recognized
Active option DFTDOPT                   ...         4   

molecular C6(AA) [au] = 1132.817652 


            DFT-D V3
 parameters
 s6 scaling factor         :     1.0000 
 a1 scaling factor         :     0.3981 
 s8 scaling factor         :     1.9889 
 a2 scaling factor         :     4.4211 
 ad hoc parameters k1-k3   :    16.0000     1.3333    -4.0000 

 Edisp/kcal,au: -8.943020073074  -0.014251608125 
 E6   /kcal   :  -4.430791367 
 E8   /kcal   :  -4.512228706 
 % E8         :  50.455312291 

-------------------------   ----------------
Dispersion correction           -0.014251608
-------------------------   ----------------


-------------------------   --------------------
FINAL SINGLE POINT ENERGY      -157.531967205628
-------------------------   --------------------

------------------------------------------------------------------------------
                         ORCA SCF GRADIENT CALCULATION
------------------------------------------------------------------------------

Gradient of the Kohn-Sham DFT energy:
Kohn-Sham wavefunction type      ... UKS
Hartree-Fock exchange scaling    ...    0.200
Number of operators              ...    2
Number of atoms                  ...   13
Basis set dimensions             ...   74
Integral neglect threshold       ... 1.0e-12
Integral primitive cutoff        ... 1.0e-14

Nuclear repulsion gradient       ... done
One Electron Gradient            ... done
Pre-screening matrix             ... done
Starting the two electron gradient:
Two electron gradient done
Exchange-correlation gradient    ... done
Dispersion correction            ... done

------------------
CARTESIAN GRADIENT
------------------

   1   C   :    0.003141061    0.026329699    0.053141395
   2   C   :    0.008663689   -0.013235242   -0.048518573
   3   C   :   -0.029770646   -0.000319332   -0.014758189
   4   C   :   -0.001834575    0.013533326   -0.028009049
   5   H   :   -0.000132013   -0.002194685    0.009002454
   6   H   :    0.003254477   -0.002992281    0.012823044
   7   H   :   -0.003359153   -0.000417474    0.007385288
   8   H   :    0.000855397   -0.006108426    0.002490178
   9   H   :    0.001774032   -0.010106311   -0.001601078
  10   H   :    0.000686708   -0.000852700    0.004817632
  11   H   :    0.004544309   -0.002110981    0.001898729
  12   H   :    0.001953463    0.001925792    0.006845396
  13   H   :    0.010223252   -0.003451386   -0.005517226

Difference to translation invariance:
           :   -0.0000000000   -0.0000000000    0.0000000000

Norm of the cartesian gradient     ...    0.0945988945
RMS gradient                       ...    0.0151479463
MAX gradient                       ...    0.0531413946

-------
TIMINGS
-------

Total SCF gradient time            ...        4.365 sec

One electron gradient       ....       0.029 sec  (  0.7%)
Prescreening matrices       ....       0.028 sec  (  0.6%)
Two electron gradient       ....       1.471 sec  ( 33.7%)
XC gradient                 ....       2.658 sec  ( 60.9%)
------------------------------------------------------------------------------
                         ORCA GEOMETRY RELAXATION STEP
------------------------------------------------------------------------------

Reading the OPT-File                    .... done
Getting information on internals        .... done
Copying old internal coords+grads       .... done
Making the new internal coordinates     .... (new redundants).... done
Validating the new internal coordinates .... (new redundants).... done
Calculating the B-matrix                .... done
Calculating the G,G- and P matrices     .... done
Transforming gradient to internals      .... done
Projecting the internal gradient        .... done
Number of atoms                         ....  13
Number of internal coordinates          ....  51
Current Energy                          ....  -157.531967206 Eh
Current gradient norm                   ....     0.094598895 Eh/bohr
Maximum allowed component of the step   ....  0.300
Current trust radius                    ....  0.300
Evaluating the initial hessian          ....  (Almloef) done
Projecting the Hessian                  .... done
Forming the augmented Hessian           .... done
Diagonalizing the augmented Hessian     .... done
Last element of RFO vector              ....  0.889730895
Lowest eigenvalues of augmented Hessian:
 -0.023580822  0.011947463  0.012645640  0.013117336  0.052788738
Length of the computed step             ....  0.513060093
Warning: the length of the step is outside the trust region - taking restricted step instead
The input lambda is                     ....    -0.023581
   iter:   1  x=   -0.045793  g=    7.798874 f(x)=     0.173231
   iter:   2  x=   -0.065468  g=    3.158038 f(x)=     0.062136
   iter:   3  x=   -0.074704  g=    1.730415 f(x)=     0.015981
   iter:   4  x=   -0.076028  g=    1.360691 f(x)=     0.001802
   iter:   5  x=   -0.076051  g=    1.316928 f(x)=     0.000029
   iter:   6  x=   -0.076051  g=    1.316212 f(x)=     0.000000
   iter:   7  x=   -0.076051  g=    1.316212 f(x)=     0.000000
The output lambda is                    ....    -0.076051 (7 iterations)
The final length of the internal step   ....  0.300000000
Converting the step to cartesian space:
 Initial RMS(Int)=    0.0420084025
Transforming coordinates:
 Iter   0:  RMS(Cart)=    0.0779132120 RMS(Int)=    0.0422258557
 Iter   1:  RMS(Cart)=    0.0032355200 RMS(Int)=    0.0018065368
 Iter   2:  RMS(Cart)=    0.0001566372 RMS(Int)=    0.0000724664
 Iter   3:  RMS(Cart)=    0.0000101439 RMS(Int)=    0.0000074890
 Iter   4:  RMS(Cart)=    0.0000006857 RMS(Int)=    0.0000003701
 Iter   5:  RMS(Cart)=    0.0000000422 RMS(Int)=    0.0000000353
done
Storing new coordinates                 .... done

                                .--------------------.
          ----------------------|Geometry convergence|-------------------------
          Item                value                   Tolerance       Converged
          ---------------------------------------------------------------------
          RMS gradient        0.0086517134            0.0001000000      NO
          MAX gradient        0.0251589758            0.0003000000      NO
          RMS step            0.0420084025            0.0020000000      NO
          MAX step            0.1039127703            0.0040000000      NO
          ........................................................
          Max(Bonds)      0.0220      Max(Angles)    5.74
          Max(Dihed)        5.95      Max(Improp)    0.00
          ---------------------------------------------------------------------

The optimization has not yet converged - more geometry cycles are needed


    ---------------------------------------------------------------------------
                         Redundant Internal Coordinates
                            (Angstroem and degrees)

        Definition                    Value    dE/dq     Step     New-Value
    ----------------------------------------------------------------------------
     1. B(C   1,C   0)                1.5025 -0.009280  0.0100    1.5125   
     2. B(C   2,C   0)                1.4978 -0.020626  0.0220    1.5198   
     3. B(C   3,C   0)                1.5122 -0.014227  0.0159    1.5281   
     4. B(H   4,C   1)                1.1167  0.004641 -0.0061    1.1106   
     5. B(H   5,C   1)                1.1090  0.001062 -0.0014    1.1076   
     6. B(H   6,C   1)                1.0970 -0.006505  0.0081    1.1051   
     7. B(H   7,C   2)                1.0981 -0.005721  0.0071    1.1052   
     8. B(H   8,C   2)                1.1198  0.010137 -0.0135    1.1064   
     9. B(H   9,C   2)                1.1198  0.003689 -0.0049    1.1149   
    10. B(H  10,C   3)                1.1016 -0.004331  0.0054    1.1071   
    11. B(H  11,C   3)                1.1195  0.004945 -0.0066    1.1129   
    12. B(H  12,C   3)                1.1191  0.010854 -0.0144    1.1047   
    13. A(C   1,C   0,C   3)          112.96  0.005108    0.69    113.66   
    14. A(C   2,C   0,C   3)          108.47 -0.025159    5.74    114.21   
    15. A(C   1,C   0,C   2)          113.67  0.006763    0.39    114.06   
    16. A(H   4,C   1,H   5)          104.80  0.002027    0.52    105.32   
    17. A(H   5,C   1,H   6)          114.32  0.009697   -2.03    112.29   
    18. A(H   4,C   1,H   6)          108.80  0.003231   -0.53    108.27   
    19. A(C   0,C   1,H   4)          106.86 -0.012028    2.01    108.87   
    20. A(C   0,C   1,H   5)          106.88 -0.014816    2.13    109.01   
    21. A(C   0,C   1,H   6)          114.51  0.009830   -1.65    112.86   
    22. A(H   7,C   2,H   9)          106.57  0.001573   -0.46    106.11   
    23. A(C   0,C   2,H   9)          110.91 -0.004388    0.66    111.58   
    24. A(H   7,C   2,H   8)          107.49 -0.000683    0.04    107.53   
    25. A(C   0,C   2,H   8)          112.14 -0.003211    0.56    112.70   
    26. A(H   8,C   2,H   9)          104.43  0.000834    0.18    104.61   
    27. A(C   0,C   2,H   7)          114.65  0.005731   -0.95    113.71   
    28. A(H  11,C   3,H  12)          106.97  0.004633   -0.51    106.47   
    29. A(H  10,C   3,H  12)          107.13 -0.000357    0.20    107.33   
    30. A(C   0,C   3,H  12)          110.61 -0.007458    1.26    111.86   
    31. A(H  10,C   3,H  11)          107.73  0.003222   -0.82    106.90   
    32. A(C   0,C   3,H  11)          110.71 -0.005719    0.77    111.48   
    33. A(C   0,C   3,H  10)          113.41  0.006064   -0.95    112.46   
    34. D(H   6,C   1,C   0,C   2)     62.70 -0.010252    3.78     66.47   
    35. D(H   4,C   1,C   0,C   2)   -176.75 -0.008588    3.50   -173.25   
    36. D(H   6,C   1,C   0,C   3)    -61.45  0.014293   -4.91    -66.36   
    37. D(H   5,C   1,C   0,C   2)    -64.99 -0.018299    5.95    -59.03   
    38. D(H   4,C   1,C   0,C   3)     59.10  0.015957   -5.18     53.92   
    39. D(H   5,C   1,C   0,C   3)    170.87  0.006247   -2.73    168.13   
    40. D(H   7,C   2,C   0,C   1)      0.85  0.002831   -2.28     -1.43   
    41. D(H   9,C   2,C   0,C   3)   -111.85 -0.002536    2.70   -109.16   
    42. D(H   9,C   2,C   0,C   1)    121.60  0.005669   -3.06    118.54   
    43. D(H   8,C   2,C   0,C   3)      4.47 -0.006331    3.70      8.18   
    44. D(H   8,C   2,C   0,C   1)   -122.07  0.001874   -2.05   -124.13   
    45. D(H   7,C   2,C   0,C   3)    127.40 -0.005375    3.48    130.88   
    46. D(H  11,C   3,C   0,C   1)   -103.58 -0.006946    4.12    -99.47   
    47. D(H  10,C   3,C   0,C   2)   -109.31  0.004323   -2.56   -111.87   
    48. D(H  10,C   3,C   0,C   1)     17.64 -0.002699    2.95     20.59   
    49. D(H  12,C   3,C   0,C   2)     11.06  0.002658   -2.04      9.02   
    50. D(H  12,C   3,C   0,C   1)    138.02 -0.004364    3.46    141.48   
    51. D(H  11,C   3,C   0,C   2)    129.46  0.000076   -1.39    128.07   
    ----------------------------------------------------------------------------

         *************************************************************
         *                GEOMETRY OPTIMIZATION CYCLE   2            *
         *************************************************************
---------------------------------
CARTESIAN COORDINATES (ANGSTROEM)
---------------------------------
  C      0.029602    0.086041    0.284614
  C     -0.892336    1.125599   -0.312945
  C      1.446661    0.135217   -0.262578
  C     -0.577762   -1.315645    0.321689
  H     -1.862750    1.096996    0.226336
  H     -0.477414    2.132849   -0.112712
  H     -1.088012    0.958950   -1.387702
  H      1.596618    0.907270   -1.039014
  H      1.774071   -0.832503   -0.687312
  H      2.188579    0.355412    0.540004
  H     -1.410942   -1.434852   -0.397483
  H     -0.983157   -1.557424    1.329562
  H      0.170725   -2.094515    0.090376

----------------------------
CARTESIAN COORDINATES (A.U.)
----------------------------
  NO LB      ZA    FRAG     MASS         X           Y           Z
   0 C     6.0000    0    12.011    0.055940    0.162594    0.537843
   1 C     6.0000    0    12.011   -1.686270    2.127074   -0.591379
   2 C     6.0000    0    12.011    2.733794    0.255523   -0.496201
   3 C     6.0000    0    12.011   -1.091812   -2.486210    0.607905
   4 H     1.0000    0     1.008   -3.520087    2.073021    0.427713
   5 H     1.0000    0     1.008   -0.902181    4.030501   -0.212994
   6 H     1.0000    0     1.008   -2.056045    1.812154   -2.622377
   7 H     1.0000    0     1.008    3.017171    1.714492   -1.963451
   8 H     1.0000    0     1.008    3.352509   -1.573203   -1.298832
   9 H     1.0000    0     1.008    4.135815    0.671631    1.020459
  10 H     1.0000    0     1.008   -2.666294   -2.711478   -0.751134
  11 H     1.0000    0     1.008   -1.857897   -2.943106    2.512509
  12 H     1.0000    0     1.008    0.322623   -3.958060    0.170786

--------------------------------
INTERNAL COORDINATES (ANGSTROEM)
--------------------------------
 C      0   0   0     0.000000000000     0.00000000     0.00000000
 C      1   0   0     1.512523372018     0.00000000     0.00000000
 C      1   2   0     1.519833965010   113.81841280     0.00000000
 C      1   2   3     1.528067769214   113.43873270   227.25958920
 H      2   1   3     1.110560823274   108.84861008   186.67010574
 H      2   1   3     1.107613012704   108.98157254   300.95504662
 H      2   1   3     1.105063363360   112.86265004    66.42922440
 H      3   1   2     1.105171884785   113.70675616   358.52317017
 H      3   1   2     1.106380744264   112.69539184   235.82741583
 H      3   1   2     1.114928526849   111.57139155   118.48797669
 H      4   1   2     1.107071717700   112.46674532    20.64925106
 H      4   1   2     1.112928376928   111.47119448   260.59874162
 H      4   1   2     1.104706560963   111.86058881   141.53604931

---------------------------
INTERNAL COORDINATES (A.U.)
---------------------------
 C      0   0   0     0.000000000000     0.00000000     0.00000000
 C      1   0   0     2.858254944270     0.00000000     0.00000000
 C      1   2   0     2.872069962900   113.81841280     0.00000000
 C      1   2   3     2.887629597886   113.43873270   227.25958920
 H      2   1   3     2.098655811051   108.84861008   186.67010574
 H      2   1   3     2.093085256378   108.98157254   300.95504662
 H      2   1   3     2.088267117381   112.86265004    66.42922440
 H      3   1   2     2.088472193152   113.70675616   358.52317017
 H      3   1   2     2.090756606504   112.69539184   235.82741583
 H      3   1   2     2.106909574641   111.57139155   118.48797669
 H      4   1   2     2.092062357063   112.46674532    20.64925106
 H      4   1   2     2.103129839064   111.47119448   260.59874162
 H      4   1   2     2.087592858565   111.86058881   141.53604931


Diagonalization of the overlap matrix:
Smallest eigenvalue                        ... 2.527e-03
Time for diagonalization                   ...    0.001 sec
Threshold for overlap eigenvalues          ... 1.000e-08
Number of eigenvalues below threshold      ... 0
Time for construction of square roots      ...    0.531 sec
Total time needed                          ...    0.532 sec

-------------------
DFT GRID GENERATION
-------------------

General Integration Accuracy     IntAcc      ...  4.340
Radial Grid Type                 RadialGrid  ... Gauss-Chebyshev
Angular Grid (max. acc.)         AngularGrid ... Lebedev-110
Angular grid pruning method      GridPruning ... 3 (G Style)
Weight generation scheme         WeightScheme... Becke
Basis function cutoff            BFCut       ...    1.0000e-12
Integration weight cutoff        WCut        ...    1.0000e-14
Grids for H and He will be reduced by one unit

# of grid points (after initial pruning)     ...  13770 (   0.0 sec)
# of grid points (after weights+screening)   ...  12911 (   0.0 sec)
nearest neighbour list constructed           ...    0.0 sec
Grid point re-assignment to atoms done       ...    0.0 sec
Grid point division into batches done        ...    0.0 sec
Reduced shell lists constructed in    0.1 sec

Total number of grid points                  ...    12911
Total number of batches                      ...      208
Average number of points per batch           ...       62
Average number of grid points per atom       ...      993
Average number of shells per batch           ...    37.17 (88.49%)
Average number of basis functions per batch  ...    66.32 (89.62%)
Average number of large shells per batch     ...    32.10 (86.35%)
Average number of large basis fcns per batch ...    56.85 (85.73%)
Maximum spatial batch extension              ...  20.05, 20.40, 20.81 au
Average spatial batch extension              ...   4.03,  4.06,  3.94 au

Time for grid setup =    2.624 sec

--------------
SCF ITERATIONS
--------------
ITER       Energy         Delta-E        Max-DP      RMS-DP      [F,P]     Damp
               ***  Starting incremental Fock matrix formation  ***
  0   -157.5249826879   0.000000000000 0.00198976  0.00017392  0.0168821 0.7000
  1   -157.5258600779  -0.000877390020 0.00180334  0.00016303  0.0133520 0.7000
                               ***Turning on DIIS***
  2   -157.5265474615  -0.000687383641 0.00484242  0.00043504  0.0100165 0.0000
  3   -157.5282896099  -0.001742148357 0.00294757  0.00008678  0.0013615 0.0000
  4   -157.5283140770  -0.000024467129 0.00252790  0.00007342  0.0006674 0.0000
  5   -157.5283185271  -0.000004450109 0.00044470  0.00001533  0.0003368 0.0000
  6   -157.5283190799  -0.000000552752 0.00030789  0.00000732  0.0000992 0.0000
  7   -157.5283191399  -0.000000060015 0.00004389  0.00000149  0.0000267 0.0000
  8   -157.5283191441  -0.000000004207 0.00001097  0.00000044  0.0000141 0.0000
  9   -157.5283191449  -0.000000000793 0.00001096  0.00000027  0.0000045 0.0000
 10   -157.5283191450  -0.000000000138 0.00000086  0.00000005  0.0000005 0.0000
                 **** Energy Check signals convergence ****

 Fermi smearing  (ALPHA): E(HOMO(Eh)) = -0.330368 MUE = -0.066128 gap=   6.823 eV
 Fermi smearing   (BETA): E(HOMO(Eh)) = -0.324814 MUE = -0.181576 gap=   7.698 eV

N_FOD(alpha) =  0.000000
 N_FOD(beta) =  0.000000
       N_FOD =  0.000000

               *****************************************************
               *                     SUCCESS                       *
               *           SCF CONVERGED AFTER  11 CYCLES          *
               *****************************************************

Setting up the final grid:

General Integration Accuracy     IntAcc      ...  4.670
Radial Grid Type                 RadialGrid  ... Gauss-Chebyshev
Angular Grid (max. acc.)         AngularGrid ... Lebedev-302
Angular grid pruning method      GridPruning ... 3 (G Style)
Weight generation scheme         WeightScheme... Becke
Basis function cutoff            BFCut       ...    1.0000e-12
Integration weight cutoff        WCut        ...    1.0000e-14
Grids for H and He will be reduced by one unit

# of grid points (after initial pruning)     ...  55394 (   0.0 sec)
# of grid points (after weights+screening)   ...  51354 (   0.1 sec)
nearest neighbour list constructed           ...    0.0 sec
Grid point re-assignment to atoms done       ...    0.0 sec
Grid point division into batches done        ...    0.2 sec
Reduced shell lists constructed in    0.4 sec

Total number of grid points                  ...    51354
Total number of batches                      ...      809
Average number of points per batch           ...       63
Average number of grid points per atom       ...     3950
Average number of shells per batch           ...    34.73 (82.70%)
Average number of basis functions per batch  ...    61.74 (83.43%)
Average number of large shells per batch     ...    29.25 (84.22%)
Average number of large basis fcns per batch ...    51.37 (83.21%)
Maximum spatial batch extension              ...  21.23, 17.91, 20.41 au
Average spatial batch extension              ...   2.67,  2.64,  2.63 au

Final grid set up in    0.7 sec
Final integration                            ... done (   4.9 sec)
Change in XC energy                          ...    -0.000431553
Integrated number of electrons               ...    32.999956249
Previous integrated no of electrons          ...    32.997722378
Total Energy       :         -157.52875070 Eh           -4286.57523 eV
  Last Energy change         ...   -9.0665e-12  Tolerance :   1.0000e-09
  Last MAX-Density change    ...    2.7801e-07  Tolerance :   1.0000e-08
             **** THE GBW FILE WAS UPDATED (orca9.gbw) ****
             **** DENSITY FILE WAS UPDATED (orca9.scfp) ****
             **** ENERGY FILE WAS UPDATED (orca9.en.tmp) ****
             **** THE GBW FILE WAS UPDATED (orca9.gbw) ****
             **** DENSITY FILE WAS UPDATED (orca9.scfp) ****
Total SCF time: 0 days 0 hours 1 min 48 sec 


-------------------------------------------------------------------------------
                          DFT DISPERSION CORRECTION                            
                                                                               
                              DFTD3 V3.1  Rev 1                                
                          USING Becke-Johnson damping                          
-------------------------------------------------------------------------------
-------------------------   ----------------
Dispersion correction           -0.014010229
-------------------------   ----------------


-------------------------   --------------------
FINAL SINGLE POINT ENERGY      -157.542760926634
-------------------------   --------------------

------------------------------------------------------------------------------
                         ORCA SCF GRADIENT CALCULATION
------------------------------------------------------------------------------

Gradient of the Kohn-Sham DFT energy:
Kohn-Sham wavefunction type      ... UKS
Hartree-Fock exchange scaling    ...    0.200
Number of operators              ...    2
Number of atoms                  ...   13
Basis set dimensions             ...   74
Integral neglect threshold       ... 1.0e-12
Integral primitive cutoff        ... 1.0e-14

Nuclear repulsion gradient       ... done
One Electron Gradient            ... done
Pre-screening matrix             ... done
Starting the two electron gradient:
Two electron gradient done
Exchange-correlation gradient    ... done
Dispersion correction            ... done

------------------
CARTESIAN GRADIENT
------------------

   1   C   :    0.002394452    0.017982221    0.043552552
   2   C   :    0.002361154   -0.004769224   -0.034358404
   3   C   :   -0.008936140   -0.002410659   -0.014728110
   4   C   :   -0.003739497   -0.003111279   -0.016186377
   5   H   :    0.001023421   -0.000364066    0.005320286
   6   H   :    0.001113481   -0.001625012    0.009090432
   7   H   :   -0.002530072   -0.001222829    0.003339277
   8   H   :    0.002411454   -0.001851510   -0.000267006
   9   H   :    0.002161703    0.000131573    0.000643062
  10   H   :    0.000980473   -0.000782868    0.001703810
  11   H   :    0.001119661   -0.002043131    0.000492421
  12   H   :    0.001597801    0.000155938    0.002670576
  13   H   :    0.000042108   -0.000089153   -0.001272519

Difference to translation invariance:
           :   -0.0000000000    0.0000000000    0.0000000000

Norm of the cartesian gradient     ...    0.0647606220
RMS gradient                       ...    0.0103699988
MAX gradient                       ...    0.0435525518

-------
TIMINGS
-------

Total SCF gradient time            ...        4.813 sec

One electron gradient       ....       0.029 sec  (  0.6%)
Prescreening matrices       ....       0.027 sec  (  0.6%)
Two electron gradient       ....       1.458 sec  ( 30.3%)
XC gradient                 ....       2.646 sec  ( 55.0%)
------------------------------------------------------------------------------
                         ORCA GEOMETRY RELAXATION STEP
------------------------------------------------------------------------------

Reading the OPT-File                    .... done
Getting information on internals        .... done
Copying old internal coords+grads       .... done
Making the new internal coordinates     .... (new redundants).... done
Validating the new internal coordinates .... (new redundants).... done
Calculating the B-matrix                .... done
Calculating the G,G- and P matrices     .... done
Transforming gradient to internals      .... done
Projecting the internal gradient        .... done
Number of atoms                         ....  13
Number of internal coordinates          ....  51
Current Energy                          ....  -157.542760927 Eh
Current gradient norm                   ....     0.064760622 Eh/bohr
Maximum allowed component of the step   ....  0.300
Current trust radius                    ....  0.300
Updating the Hessian (BFGS)             .... done
Forming the augmented Hessian           .... done
Diagonalizing the augmented Hessian     .... done
Last element of RFO vector              ....  0.933703831
Lowest eigenvalues of augmented Hessian:
 -0.008652457  0.011915472  0.012645409  0.013094345  0.049436839
Length of the computed step             ....  0.383468816
Warning: the length of the step is outside the trust region - taking restricted step instead
The input lambda is                     ....    -0.008652
   iter:   1  x=   -0.018665  g=    5.697813 f(x)=     0.057048
   iter:   2  x=   -0.022917  g=    3.257254 f(x)=     0.013849
   iter:   3  x=   -0.023418  g=    2.658665 f(x)=     0.001332
   iter:   4  x=   -0.023424  g=    2.598437 f(x)=     0.000015
   iter:   5  x=   -0.023424  g=    2.597746 f(x)=     0.000000
   iter:   6  x=   -0.023424  g=    2.597746 f(x)=     0.000000
The output lambda is                    ....    -0.023424 (6 iterations)
The final length of the internal step   ....  0.300000000
Converting the step to cartesian space:
 Initial RMS(Int)=    0.0420084025
Transforming coordinates:
 Iter   0:  RMS(Cart)=    0.0366155190 RMS(Int)=    0.0429408585
 Iter   1:  RMS(Cart)=    0.0026235527 RMS(Int)=    0.0014731961
 Iter   2:  RMS(Cart)=    0.0001170193 RMS(Int)=    0.0000586620
 Iter   3:  RMS(Cart)=    0.0000025296 RMS(Int)=    0.0000023047
 Iter   4:  RMS(Cart)=    0.0000002147 RMS(Int)=    0.0000001250
 Iter   5:  RMS(Cart)=    0.0000000090 RMS(Int)=    0.0000000048
done
Storing new coordinates                 .... done

                                .--------------------.
          ----------------------|Geometry convergence|-------------------------
          Item                value                   Tolerance       Converged
          ---------------------------------------------------------------------
          Energy change      -0.0107937210            0.0000050000      NO
          RMS gradient        0.0036896446            0.0001000000      NO
          MAX gradient        0.0095002181            0.0003000000      NO
          RMS step            0.0420084025            0.0020000000      NO
          MAX step            0.1050855191            0.0040000000      NO
          ........................................................
          Max(Bonds)      0.0090      Max(Angles)    3.24
          Max(Dihed)        6.02      Max(Improp)    0.00
          ---------------------------------------------------------------------

The optimization has not yet converged - more geometry cycles are needed


    ---------------------------------------------------------------------------
                         Redundant Internal Coordinates
                            (Angstroem and degrees)

        Definition                    Value    dE/dq     Step     New-Value
    ----------------------------------------------------------------------------
     1. B(C   1,C   0)                1.5125 -0.000128  0.0002    1.5127   
     2. B(C   2,C   0)                1.5198  0.001246 -0.0023    1.5175   
     3. B(C   3,C   0)                1.5281  0.004709 -0.0090    1.5191   
     4. B(H   4,C   1)                1.1106  0.001702 -0.0037    1.1069   
     5. B(H   5,C   1)                1.1076  0.000583 -0.0013    1.1064   
     6. B(H   6,C   1)                1.1051 -0.002619  0.0054    1.1105   
     7. B(H   7,C   2)                1.1052 -0.000775  0.0015    1.1067   
     8. B(H   8,C   2)                1.1064  0.000278 -0.0003    1.1061   
     9. B(H   9,C   2)                1.1149  0.001721 -0.0038    1.1111   
    10. B(H  10,C   3)                1.1071 -0.000944  0.0019    1.1090   
    11. B(H  11,C   3)                1.1129  0.001802 -0.0039    1.1090   
    12. B(H  12,C   3)                1.1047  0.000360 -0.0004    1.1043   
    13. A(C   1,C   0,C   3)          113.44 -0.000506    1.90    115.34   
    14. A(C   2,C   0,C   3)          114.14 -0.005770    3.24    117.38   
    15. A(C   1,C   0,C   2)          113.82 -0.000572    1.92    115.74   
    16. A(H   4,C   1,H   5)          105.25  0.000296    1.17    106.42   
    17. A(H   5,C   1,H   6)          112.29  0.006607   -2.51    109.78   
    18. A(H   4,C   1,H   6)          108.28  0.001896   -0.53    107.75   
    19. A(C   0,C   1,H   4)          108.85 -0.006661    2.02    110.87   
    20. A(C   0,C   1,H   5)          108.98 -0.008347    2.02    111.01   
    21. A(C   0,C   1,H   6)          112.86  0.005537   -1.69    111.17   
    22. A(H   7,C   2,H   9)          106.11 -0.000559    0.08    106.19   
    23. A(C   0,C   2,H   9)          111.57 -0.001950    0.55    112.13   
    24. A(H   7,C   2,H   8)          107.53 -0.002362    0.40    107.93   
    25. A(C   0,C   2,H   8)          112.70  0.001603   -0.41    112.28   
    26. A(H   8,C   2,H   9)          104.61 -0.001570    0.75    105.36   
    27. A(C   0,C   2,H   7)          113.71  0.004242   -1.19    112.52   
    28. A(H  11,C   3,H  12)          106.45  0.000506    0.11    106.57   
    29. A(H  10,C   3,H  12)          107.34 -0.001706    0.48    107.81   
    30. A(C   0,C   3,H  12)          111.86 -0.000908    0.30    112.16   
    31. A(H  10,C   3,H  11)          106.90  0.000832   -0.44    106.46   
    32. A(C   0,C   3,H  11)          111.47 -0.002377    0.55    112.02   
    33. A(C   0,C   3,H  10)          112.47  0.003589   -0.97    111.49   
    34. D(H   6,C   1,C   0,C   2)     66.43 -0.003251    3.09     69.52   
    35. D(H   4,C   1,C   0,C   2)   -173.33 -0.001889    2.78   -170.55   
    36. D(H   6,C   1,C   0,C   3)    -66.31  0.006368   -4.64    -70.95   
    37. D(H   5,C   1,C   0,C   2)    -59.04 -0.009500    6.02    -53.02   
    38. D(H   4,C   1,C   0,C   3)     53.93  0.007729   -4.95     48.98   
    39. D(H   5,C   1,C   0,C   3)    168.21  0.000118   -1.71    166.51   
    40. D(H   7,C   2,C   0,C   1)     -1.48  0.003458   -3.28     -4.76   
    41. D(H   9,C   2,C   0,C   3)   -109.11 -0.002835    3.26   -105.85   
    42. D(H   9,C   2,C   0,C   1)    118.49  0.004306   -3.61    114.88   
    43. D(H   8,C   2,C   0,C   3)      8.23 -0.005086    4.30     12.53   
    44. D(H   8,C   2,C   0,C   1)   -124.17  0.002056   -2.56   -126.74   
    45. D(H   7,C   2,C   0,C   3)    130.93 -0.003684    3.58    134.51   
    46. D(H  11,C   3,C   0,C   1)    -99.40 -0.005473    4.98    -94.42   
    47. D(H  10,C   3,C   0,C   2)   -111.93  0.003541   -2.71   -114.65   
    48. D(H  10,C   3,C   0,C   1)     20.65 -0.003591    4.13     24.77   
    49. D(H  12,C   3,C   0,C   2)      8.95  0.003239   -2.56      6.40   
    50. D(H  12,C   3,C   0,C   1)    141.54 -0.003894    4.28    145.82   
    51. D(H  11,C   3,C   0,C   2)    128.01  0.001659   -1.86    126.16   
    ----------------------------------------------------------------------------

Time needed for optimization step       :     3.20 sec

         *************************************************************
         *                GEOMETRY OPTIMIZATION CYCLE   3            *
         *************************************************************
---------------------------------
CARTESIAN COORDINATES (ANGSTROEM)
---------------------------------
  C      0.033416    0.053330    0.227735
  C     -0.894768    1.125171   -0.299450
  C      1.464890    0.137402   -0.268978
  C     -0.583284   -1.331506    0.325228
  H     -1.866373    1.098803    0.230108
  H     -0.474290    2.133290   -0.123612
  H     -1.095200    0.985171   -1.382668
  H      1.605411    0.934440   -1.023777
  H      1.811841   -0.815199   -0.711350
  H      2.180401    0.358398    0.551865
[...]

             **** THE GBW FILE WAS UPDATED (orca9.gbw) ****
             **** DENSITY FILE WAS UPDATED (orca9.scfp) ****
             **** ENERGY FILE WAS UPDATED (orca9.en.tmp) ****
             **** THE GBW FILE WAS UPDATED (orca9.gbw) ****
             **** DENSITY FILE WAS UPDATED (orca9.scfp) ****
----------------
ORBITAL ENERGIES
----------------
                 SPIN UP ORBITALS
  NO   OCC          E(Eh)            E(eV) 
   0   1.0000     -10.179624      -277.0017 
   1   1.0000     -10.169416      -276.7239 
   2   1.0000     -10.169115      -276.7157 
   3   1.0000     -10.168414      -276.6966 
   4   1.0000      -0.786609       -21.4047 
   5   1.0000      -0.677704       -18.4413 
   6   1.0000      -0.676261       -18.4020 
   7   1.0000      -0.525770       -14.3069 
   8   1.0000      -0.437971       -11.9178 
   9   1.0000      -0.434481       -11.8228 
  10   1.0000      -0.432663       -11.7734 
  11   1.0000      -0.384013       -10.4495 
  12   1.0000      -0.380390       -10.3509 
  13   1.0000      -0.362490        -9.8639 
  14   1.0000      -0.342748        -9.3267 
  15   1.0000      -0.341518        -9.2932 
  16   1.0000      -0.162685        -4.4269 
  17   0.0000       0.055579         1.5124 
  18   0.0000       0.104449         2.8422 
  19   0.0000       0.107344         2.9210 
  20   0.0000       0.119052         3.2396 
  21   0.0000       0.124985         3.4010 
  22   0.0000       0.133916         3.6440 
  23   0.0000       0.150771         4.1027 
  24   0.0000       0.155685         4.2364 
  25   0.0000       0.161993         4.4080 
  26   0.0000       0.211156         5.7458 
  27   0.0000       0.289323         7.8729 
  28   0.0000       0.294781         8.0214 
  29   0.0000       0.408734        11.1222 
  30   0.0000       0.423497        11.5239 
  31   0.0000       0.464262        12.6332 
  32   0.0000       0.473973        12.8975 
  33   0.0000       0.483717        13.1626 
  34   0.0000       0.505949        13.7676 
  35   0.0000       0.593098        16.1390 
  36   0.0000       0.620014        16.8714 
  37   0.0000       0.638311        17.3693 
  38   0.0000       0.655619        17.8403 
  39   0.0000       0.668211        18.1830 
  40   0.0000       0.673884        18.3373 
  41   0.0000       0.680423        18.5153 
  42   0.0000       0.685910        18.6646 
  43   0.0000       0.697895        18.9907 
  44   0.0000       0.704740        19.1769 
  45   0.0000       0.709164        19.2973 
  46   0.0000       0.718913        19.5626 
  47   0.0000       0.729652        19.8548 
  48   0.0000       0.733282        19.9536 
  49   0.0000       0.786761        21.4089 
  50   0.0000       0.799100        21.7446 
  51   0.0000       0.854346        23.2479 
  52   0.0000       0.971724        26.4420 
  53   0.0000       1.004307        27.3286 
  54   0.0000       1.414333        38.4860 
  55   0.0000       1.435565        39.0637 
  56   0.0000       1.728022        47.0219 
  57   0.0000       1.784717        48.5646 
  58   0.0000       1.799353        48.9629 
  59   0.0000       1.855017        50.4776 
  60   0.0000       1.864405        50.7330 
  61   0.0000       1.978198        53.8295 
  62   0.0000       1.992689        54.2238 
  63   0.0000       2.031397        55.2771 
  64   0.0000       2.064893        56.1886 
  65   0.0000       2.137898        58.1752 
  66   0.0000       2.151439        58.5436 
  67   0.0000       2.248744        61.1914 
  68   0.0000       2.252383        61.2905 
  69   0.0000       2.345793        63.8323 
  70   0.0000       2.367045        64.4106 
  71   0.0000       2.497584        67.9627 
  72   0.0000       2.743083        74.6431 
  73   0.0000       2.744508        74.6818 

                 SPIN DOWN ORBITALS
  NO   OCC          E(Eh)            E(eV) 
   0   1.0000     -10.170523      -276.7540 
   1   1.0000     -10.170223      -276.7458 
   2   1.0000     -10.169510      -276.7264 
   3   1.0000     -10.165184      -276.6087 
   4   1.0000      -0.769128       -20.9290 
   5   1.0000      -0.675214       -18.3735 
   6   1.0000      -0.673944       -18.3390 
   7   1.0000      -0.506962       -13.7951 
   8   1.0000      -0.430527       -11.7152 
   9   1.0000      -0.429995       -11.7008 
  10   1.0000      -0.416698       -11.3389 
  11   1.0000      -0.377351       -10.2682 
  12   1.0000      -0.374220       -10.1830 
  13   1.0000      -0.361125        -9.8267 
  14   1.0000      -0.337558        -9.1854 
  15   1.0000      -0.336951        -9.1689 
  16   0.0000      -0.022283        -0.6063 
  17   0.0000       0.057022         1.5516 
  18   0.0000       0.105613         2.8739 
  19   0.0000       0.108520         2.9530 
  20   0.0000       0.121690         3.3113 
  21   0.0000       0.126858         3.4520 
  22   0.0000       0.136577         3.7164 
  23   0.0000       0.153833         4.1860 
  24   0.0000       0.161282         4.3887 
  25   0.0000       0.163277         4.4430 
  26   0.0000       0.230429         6.2703 
  27   0.0000       0.294524         8.0144 
  28   0.0000       0.300137         8.1672 
  29   0.0000       0.411230        11.1902 
  30   0.0000       0.425414        11.5761 
  31   0.0000       0.478178        13.0119 
  32   0.0000       0.490217        13.3395 
  33   0.0000       0.501381        13.6433 
  34   0.0000       0.516329        14.0500 
  35   0.0000       0.604050        16.4370 
  36   0.0000       0.630010        17.1434 
  37   0.0000       0.646598        17.5948 
  38   0.0000       0.664641        18.0858 
  39   0.0000       0.672889        18.3102 
  40   0.0000       0.681925        18.5561 
  41   0.0000       0.685356        18.6495 
  42   0.0000       0.691434        18.8149 
  43   0.0000       0.703988        19.1565 
  44   0.0000       0.711176        19.3521 
  45   0.0000       0.714352        19.4385 
  46   0.0000       0.723262        19.6810 
  47   0.0000       0.731505        19.9053 
  48   0.0000       0.737078        20.0569 
  49   0.0000       0.793054        21.5801 
  50   0.0000       0.806279        21.9400 
  51   0.0000       0.862021        23.4568 
  52   0.0000       0.975313        26.5396 
  53   0.0000       1.007605        27.4183 
  54   0.0000       1.438096        39.1326 
  55   0.0000       1.459624        39.7184 
  56   0.0000       1.726051        46.9682 
  57   0.0000       1.788956        48.6800 
  58   0.0000       1.803124        49.0655 
  59   0.0000       1.866480        50.7895 
  60   0.0000       1.901347        51.7383 
  61   0.0000       1.982501        53.9466 
  62   0.0000       1.995875        54.3105 
  63   0.0000       2.040372        55.5214 
  64   0.0000       2.076153        56.4950 
  65   0.0000       2.139559        58.2204 
  66   0.0000       2.151245        58.5383 
  67   0.0000       2.248789        61.1927 
  68   0.0000       2.253185        61.3123 
  69   0.0000       2.373162        64.5770 
  70   0.0000       2.393268        65.1241 
  71   0.0000       2.525638        68.7261 
  72   0.0000       2.750063        74.8330 
  73   0.0000       2.751533        74.8730 

                    ********************************
                    * MULLIKEN POPULATION ANALYSIS *
                    ********************************

------------------------------------------
FOD BASED MULLIKEN REDUCED ORBITAL CHARGES
------------------------------------------
  0 C s       :     0.000000  s :     0.000000
      pz      :     0.000000  p :     0.000000
      px      :     0.000000
      py      :     0.000000
      dz2     :     0.000000  d :     0.000000
      dxz     :     0.000000
      dyz     :     0.000000
      dx2y2   :     0.000000
      dxy     :     0.000000
  1 C s       :    -0.000000  s :    -0.000000
      pz      :     0.000000  p :     0.000000
      px      :     0.000000
      py      :     0.000000
      dz2     :     0.000000  d :     0.000000
      dxz     :     0.000000
      dyz     :     0.000000
      dx2y2   :     0.000000
      dxy     :     0.000000
  2 C s       :    -0.000000  s :    -0.000000
      pz      :     0.000000  p :     0.000000
      px      :     0.000000
      py      :     0.000000
      dz2     :     0.000000  d :     0.000000
      dxz     :     0.000000
      dyz     :     0.000000
      dx2y2   :     0.000000
      dxy     :     0.000000
  3 C s       :    -0.000000  s :    -0.000000
      pz      :     0.000000  p :     0.000000
      px      :     0.000000
      py      :     0.000000
      dz2     :     0.000000  d :     0.000000
      dxz     :     0.000000
      dyz     :     0.000000
      dx2y2   :     0.000000
      dxy     :     0.000000
  4 H s       :     0.000000  s :     0.000000
  5 H s       :     0.000000  s :     0.000000
  6 H s       :     0.000000  s :     0.000000
  7 H s       :     0.000000  s :     0.000000
  8 H s       :     0.000000  s :     0.000000
  9 H s       :     0.000000  s :     0.000000
 10 H s       :     0.000000  s :     0.000000
 11 H s       :     0.000000  s :     0.000000
 12 H s       :     0.000000  s :     0.000000


                     *******************************
                     * LOEWDIN POPULATION ANALYSIS *
                     *******************************

-------------------------------------------
LOEWDIN ATOMIC CHARGES AND SPIN POPULATIONS
-------------------------------------------
   0 C :   -0.087463    0.828833
   1 C :   -0.311551   -0.025285
   2 C :   -0.312663   -0.025229
   3 C :   -0.314597   -0.025724
   4 H :    0.112915    0.013397
   5 H :    0.113498    0.014363
   6 H :    0.114618    0.052967
   7 H :    0.113233    0.010297
   8 H :    0.113748    0.019003
   9 H :    0.115782    0.054333
  10 H :    0.114768    0.042985
  11 H :    0.114503    0.038706
  12 H :    0.113208    0.001353

----------------------------------------------------
LOEWDIN REDUCED ORBITAL CHARGES AND SPIN POPULATIONS
----------------------------------------------------
CHARGE
  0 C s       :     2.896903  s :     2.896903
      pz      :     1.008704  p :     3.100963
      px      :     1.047722
      py      :     1.044537
      dz2     :     0.007009  d :     0.089597
      dxz     :     0.010756
      dyz     :     0.009456
      dx2y2   :     0.030712
      dxy     :     0.031663
  1 C s       :     2.945558  s :     2.945558
      pz      :     1.107048  p :     3.287651
      px      :     1.094923
      py      :     1.085680
      dz2     :     0.017249  d :     0.078342
      dxz     :     0.020251
      dyz     :     0.007356
      dx2y2   :     0.015576
      dxy     :     0.017909
  2 C s       :     2.945583  s :     2.945583
      pz      :     1.106393  p :     3.288474
      px      :     1.074394
      py      :     1.107688
      dz2     :     0.008672  d :     0.078605
      dxz     :     0.022928
      dyz     :     0.015890
      dx2y2   :     0.018081
      dxy     :     0.013034
  3 C s       :     2.945677  s :     2.945677
      pz      :     1.105194  p :     3.290607
      px      :     1.104810
      py      :     1.080603
      dz2     :     0.014360  d :     0.078313
      dxz     :     0.020556
      dyz     :     0.011359
      dx2y2   :     0.009440
      dxy     :     0.022599
  4 H s       :     0.887085  s :     0.887085
  5 H s       :     0.886502  s :     0.886502
  6 H s       :     0.885382  s :     0.885382
  7 H s       :     0.886767  s :     0.886767
  8 H s       :     0.886252  s :     0.886252
  9 H s       :     0.884218  s :     0.884218
 10 H s       :     0.885232  s :     0.885232
 11 H s       :     0.885497  s :     0.885497
 12 H s       :     0.886792  s :     0.886792

SPIN
  0 C s       :     0.032070  s :     0.032070
      pz      :     0.711306  p :     0.800844
      px      :     0.028210
      py      :     0.061329
      dz2     :    -0.001939  d :    -0.004082
      dxz     :    -0.000168
      dyz     :    -0.000448
      dx2y2   :    -0.000734
      dxy     :    -0.000793
  1 C s       :    -0.006685  s :    -0.006685
      pz      :    -0.012880  p :    -0.036199
      px      :    -0.010082
      py      :    -0.013237
      dz2     :     0.003186  d :     0.017599
      dxz     :     0.007151
      dyz     :     0.005358
      dx2y2   :     0.001087
      dxy     :     0.000817
  2 C s       :    -0.006924  s :    -0.006924
      pz      :    -0.011713  p :    -0.036555
      px      :    -0.019669
      py      :    -0.005172
      dz2     :     0.000333  d :     0.018250
      dxz     :     0.014365
      dyz     :     0.000406
      dx2y2   :     0.001678
      dxy     :     0.001468
  3 C s       :    -0.006799  s :    -0.006799
      pz      :    -0.013349  p :    -0.036775
      px      :    -0.008084
      py      :    -0.015341
      dz2     :     0.003038  d :     0.017850
      dxz     :     0.005819
      dyz     :     0.006824
      dx2y2   :     0.000539
      dxy     :     0.001630
  4 H s       :     0.013397  s :     0.013397
  5 H s       :     0.014363  s :     0.014363
  6 H s       :     0.052967  s :     0.052967
  7 H s       :     0.010297  s :     0.010297
  8 H s       :     0.019003  s :     0.019003
  9 H s       :     0.054333  s :     0.054333
 10 H s       :     0.042985  s :     0.042985
 11 H s       :     0.038706  s :     0.038706
 12 H s       :     0.001353  s :     0.001353


                      *****************************
                      * MAYER POPULATION ANALYSIS *
                      *****************************

  NA   - Mulliken gross atomic population
  ZA   - Total nuclear charge
  QA   - Mulliken gross atomic charge
  VA   - Mayer's total valence
  BVA  - Mayer's bonded valence
  FA   - Mayer's free valence

  ATOM       NA         ZA         QA         VA         BVA        FA
  0 C      6.1711     6.0000    -0.1711     4.2393     3.5404     0.6989
  1 C      6.2115     6.0000    -0.2115     3.9523     3.9486     0.0037
  2 C      6.2145     6.0000    -0.2145     3.9670     3.9630     0.0041
  3 C      6.2226     6.0000    -0.2226     3.9546     3.9508     0.0038
  4 H      0.9123     1.0000     0.0877     0.9595     0.9592     0.0003
  5 H      0.9113     1.0000     0.0887     0.9569     0.9566     0.0003
  6 H      0.9079     1.0000     0.0921     0.9476     0.9437     0.0039
  7 H      0.9115     1.0000     0.0885     0.9588     0.9586     0.0002
  8 H      0.9095     1.0000     0.0905     0.9556     0.9551     0.0005
  9 H      0.9037     1.0000     0.0963     0.9454     0.9414     0.0040
 10 H      0.9047     1.0000     0.0953     0.9484     0.9459     0.0025
 11 H      0.9067     1.0000     0.0933     0.9508     0.9488     0.0021
 12 H      0.9127     1.0000     0.0873     0.9640     0.9640     0.0000

  Mayer bond orders larger than 0.100000
B(  0-C ,  1-C ) :   1.1232 B(  0-C ,  2-C ) :   1.1398 B(  0-C ,  3-C ) :   1.1299 
B(  1-C ,  4-H ) :   0.9526 B(  1-C ,  5-H ) :   0.9509 B(  1-C ,  6-H ) :   0.9311 
B(  2-C ,  7-H ) :   0.9529 B(  2-C ,  8-H ) :   0.9450 B(  2-C ,  9-H ) :   0.9310 
B(  3-C , 10-H ) :   0.9398 B(  3-C , 11-H ) :   0.9364 B(  3-C , 12-H ) :   0.9544 


-------
TIMINGS
-------

Total SCF time: 0 days 0 hours 4 min 24 sec 

Total time                  ....     264.073 sec
Sum of individual times     ....     224.602 sec  ( 85.1%)

Fock matrix formation       ....     183.404 sec  ( 69.5%)
  XC integration            ....     100.809 sec  ( 55.0% of F)
    Basis function eval.    ....       0.506 sec  (  0.5% of XC)
    Density eval.           ....       0.345 sec  (  0.3% of XC)
    XC-Functional eval.     ....       0.217 sec  (  0.2% of XC)
    XC-Potential eval.      ....       0.494 sec  (  0.5% of XC)
Diagonalization             ....       1.508 sec  (  0.6%)
Density matrix formation    ....      13.541 sec  (  5.1%)
Population analysis         ....      12.680 sec  (  4.8%)
Initial guess               ....       0.004 sec  (  0.0%)
Orbital Transformation      ....       0.000 sec  (  0.0%)
Orbital Orthonormalization  ....       0.001 sec  (  0.0%)
DIIS solution               ....      11.937 sec  (  4.5%)
Grid generation             ....       1.528 sec  (  0.6%)


-------------------------------------------------------------------------------
                          DFT DISPERSION CORRECTION                            
                                                                               
                              DFTD3 V3.1  Rev 1                                
                          USING Becke-Johnson damping                          
-------------------------------------------------------------------------------
The B3LYP functional is recognized
Active option DFTDOPT                   ...         4   

molecular C6(AA) [au] = 1133.400768 


            DFT-D V3
 parameters
 s6 scaling factor         :     1.0000 
 a1 scaling factor         :     0.3981 
 s8 scaling factor         :     1.9889 
 a2 scaling factor         :     4.4211 
 ad hoc parameters k1-k3   :    16.0000     1.3333    -4.0000 

 Edisp/kcal,au: -8.641848392867  -0.013771660554 
 E6   /kcal   :  -4.280441278 
 E8   /kcal   :  -4.361407115 
 % E8         :  50.468452075 

-------------------------   ----------------
Dispersion correction           -0.013771661
-------------------------   ----------------


-------------------------   --------------------
FINAL SINGLE POINT ENERGY      -157.555213901045
-------------------------   --------------------

                                *** OPTIMIZATION RUN DONE ***

                            ***************************************
                            *     ORCA property calculations      *
                            ***************************************

                                    ---------------------
                                    Active property flags
                                    ---------------------
   (+) Dipole Moment


------------------------------------------------------------------------------
                       ORCA ELECTRIC PROPERTIES CALCULATION
------------------------------------------------------------------------------

Dipole Moment Calculation                       ... on
Quadrupole Moment Calculation                   ... off
Polarizability Calculation                      ... off
GBWName                                         ... orca9.gbw
Electron density file                           ... orca9.scfp
The origin for moment calculation is the CENTER OF MASS  = (-0.004379, -0.063509 -0.198443)

-------------
DIPOLE MOMENT
-------------
                                X             Y             Z
Electronic contribution:      0.05986       0.00340       0.03865
Nuclear contribution   :     -0.05734       0.00030      -0.04303
                        -----------------------------------------
Total Dipole Moment    :      0.00252       0.00370      -0.00438
                        -----------------------------------------
Magnitude (a.u.)       :      0.00626
Magnitude (Debye)      :      0.01592



--------------------
Rotational spectrum 
--------------------
 
Rotational constants in cm-1:     0.265484     0.260140     0.141905 
Rotational constants in MHz :  7959.020606  7798.786845  4254.210248 

 Dipole components along the rotational axes: 
x,y,z [a.u.] :    -0.004081    -0.003683    -0.003001 
x,y,z [Debye]:    -0.010373    -0.009360    -0.007628 

 

Timings for individual modules:

Sum of individual times         ...     3213.436 sec (=  53.557 min)
GTO integral calculation        ...       89.171 sec (=   1.486 min)   2.8 %
SCF iterations                  ...     3004.558 sec (=  50.076 min)  93.5 %
SCF Gradient evaluation         ...       65.815 sec (=   1.097 min)   2.0 %
Geometry relaxation             ...       53.891 sec (=   0.898 min)   1.7 %
                             ****ORCA TERMINATED NORMALLY****
TOTAL RUN TIME: 0 days 0 hours 55 minutes 44 seconds 274 msec
