
                                 *****************
                                 * O   R   C   A *
                                 *****************

           --- An Ab Initio, DFT and Semiempirical electronic structure package ---

                  #######################################################
                  #                        -***-                        #
                  #          Department of theory and spectroscopy      #
                  #               Directorship: Frank Neese             #
                  #        Max Planck Institute fuer Kohlenforschung    #
                  #                Kaiser Wilhelm Platz 1               #
                  #                 D-45470 Muelheim/Ruhr               #
                  #                      Germany                        #
                  #                                                     #
                  #                  All rights reserved                #
                  #                        -***-                        #
                  #######################################################


                         Program Version 4.2.1 -  RELEASE  -


 With contributions from (in alphabetic order):
   Daniel Aravena         : Magnetic Suceptibility
   Michael Atanasov       : Ab Initio Ligand Field Theory (pilot matlab implementation)
   Alexander A. Auer      : GIAO ZORA, VPT2
   Ute Becker             : Parallelization
   Giovanni Bistoni       : ED, misc. LED, open-shell LED, HFLD
   Martin Brehm           : Molecular dynamics
   Dmytro Bykov           : SCF Hessian
   Vijay G. Chilkuri      : MRCI spin determinant printing, contributions to CSF-ICE
   Dipayan Datta          : RHF DLPNO-CCSD density
   Achintya Kumar Dutta   : EOM-CC, STEOM-CC
   Dmitry Ganyushin       : Spin-Orbit,Spin-Spin,Magnetic field MRCI
   Miquel Garcia          : C-PCM Hessian, Gaussian charge scheme
   Yang Guo               : DLPNO-NEVPT2, CIM, IAO-localization
   Andreas Hansen         : Spin unrestricted coupled pair/coupled cluster methods
   Benjamin Helmich-Paris : CASSCF linear response (MC-RPA)
   Lee Huntington         : MR-EOM, pCC
   Robert Izsak           : Overlap fitted RIJCOSX, COSX-SCS-MP3, EOM
   Christian Kollmar      : KDIIS, OOCD, Brueckner-CCSD(T), CCSD density
   Simone Kossmann        : Meta GGA functionals, TD-DFT gradient, OOMP2, MP2 Hessian
   Martin Krupicka        : AUTO-CI
   Lucas Lang             : DCDCAS
   Dagmar Lenk            : GEPOL surface, SMD
   Dimitrios Liakos       : Extrapolation schemes; Compound Job, initial MDCI parallelization
   Dimitrios Manganas     : Further ROCIS development; embedding schemes
   Dimitrios Pantazis     : SARC Basis sets
   Taras Petrenko         : DFT Hessian,TD-DFT gradient, ASA, ECA, R-Raman, ABS, FL, XAS/XES, NRVS
   Peter Pinski           : DLPNO-MP2, DLPNO-MP2 Gradient
   Christoph Reimann      : Effective Core Potentials
   Marius Retegan         : Local ZFS, SOC
   Christoph Riplinger    : Optimizer, TS searches, QM/MM, DLPNO-CCSD(T), (RO)-DLPNO pert. Triples
   Tobias Risthaus        : Range-separated hybrids, TD-DFT gradient, RPA, STAB
   Michael Roemelt        : Original ROCIS implementation
   Masaaki Saitow         : Open-shell DLPNO-CCSD energy and density
   Barbara Sandhoefer     : DKH picture change effects
   Avijit Sen             : IP-ROCIS
   Kantharuban Sivalingam : CASSCF convergence, NEVPT2, FIC-MRCI
   Bernardo de Souza      : ESD, SOC TD-DFT
   Georgi Stoychev        : AutoAux, RI-MP2 NMR
   Willem Van den Heuvel  : Paramagnetic NMR
   Boris Wezisla          : Elementary symmetry handling
   Frank Wennmohs         : Technical directorship


 We gratefully acknowledge several colleagues who have allowed us to
 interface, adapt or use parts of their codes:
   Stefan Grimme, W. Hujo, H. Kruse,             : VdW corrections, initial TS optimization,
                  C. Bannwarth                     DFT functionals, gCP, sTDA/sTD-DF
   Ed Valeev, F. Pavosevic, A. Kumar             : LibInt (2-el integral package), F12 methods
   Garnet Chan, S. Sharma, J. Yang, R. Olivares  : DMRG
   Ulf Ekstrom                                   : XCFun DFT Library
   Mihaly Kallay                                 : mrcc  (arbitrary order and MRCC methods)
   Andreas Klamt, Michael Diedenhofen            : otool_cosmo (COSMO solvation model)
   Jiri Pittner, Ondrej Demel                    : Mk-CCSD
   Frank Weinhold                                : gennbo (NPA and NBO analysis)
   Christopher J. Cramer and Donald G. Truhlar   : smd solvation model
   Lars Goerigk                                  : TD-DFT with DH, B97 family of functionals
   V. Asgeirsson, H. Jonsson                     : NEB implementation
   FAccTs GmbH                                   : IRC, NEB, NEB-TS, Multilevel, MM, QM/MM, CI optimization
   S Lehtola, MJT Oliveira, MAL Marques          : LibXC Library


 Your calculation uses the libint2 library for the computation of 2-el integrals
 For citations please refer to: http://libint.valeyev.net

 Your ORCA version has been built with support for libXC version: 4.2.3
 For citations please refer to: https://tddft.org/programs/libxc/

 This ORCA versions uses:
   CBLAS   interface :  Fast vector & matrix operations
   LAPACKE interface :  Fast linear algebra routines
   SCALAPACK package :  Parallel linear algebra routines


Your calculation utilizes the atom-pairwise dispersion correction
with the Becke-Johnson damping scheme (D3BJ)
Cite in your paper:
S.Grimme, S.Ehrlich, L.Goerigk, J Comput Chem, (2011), 32, 1456–1465 
S.Grimme, J.Antony, S.Ehrlich and H.Krieg, J.Chem.Phys., 132, (2010), 154104 
   

----- Orbital basis set information -----
Your calculation utilizes the basis: def2-SV(P)
   F. Weigend and R. Ahlrichs, Phys. Chem. Chem. Phys. 7, 3297 (2005).

----- AuxJ basis set information -----
Your calculation utilizes the auxiliary basis: def2/J
   F. Weigend, Phys. Chem. Chem. Phys. 8, 1057 (2006).

================================================================================
                                        WARNINGS
                       Please study these warnings very carefully!
================================================================================


WARNING: Geometry Optimization
  ===> : Switching off AutoStart
         For restart on a previous wavefunction, please use MOREAD

INFO   : the flag for use of LIBINT has been found!

================================================================================
                                       INPUT FILE
================================================================================
NAME = orca4.inp
|  1> ! UKS B3LYP def2-SV(P) def2/J D3BJ Opt
|  2> %scf Convergence VeryTight
|  3> SmearTemp 2000
|  4> maxiter 500
|  5> end
|  6> *xyz 0 2
|  7> C 0.089792 -0.07288 0.485406
|  8> C 0.198814 1.413693 0.293692
|  9> C -1.328367 -0.476455 0.097331
| 10> C 1.124415 -0.866223 -0.251913
| 11> H 1.21457 1.804462 0.446761
| 12> H -0.178502 1.649701 -0.733245
| 13> H -0.557889 1.87288 0.97997
| 14> H -1.778577 -0.958997 0.979185
| 15> H -1.231066 -1.130487 -0.782196
| 16> H -1.949483 0.382719 -0.188123
| 17> H 1.681171 -1.580027 0.408605
| 18> H 0.583725 -1.523462 -0.980085
| 19> H 1.858202 -0.262108 -0.80596
| 20> *
| 21> 
| 22>                          ****END OF INPUT****
================================================================================

                       *****************************
                       * Geometry Optimization Run *
                       *****************************

Geometry optimization settings:
Update method            Update   .... BFGS
Choice of coordinates    CoordSys .... Z-matrix Internals
Initial Hessian          InHess   .... Almoef's Model

Convergence Tolerances:
Energy Change            TolE     ....  5.0000e-06 Eh
Max. Gradient            TolMAXG  ....  3.0000e-04 Eh/bohr
RMS Gradient             TolRMSG  ....  1.0000e-04 Eh/bohr
Max. Displacement        TolMAXD  ....  4.0000e-03 bohr
RMS Displacement         TolRMSD  ....  2.0000e-03 bohr
Strict Convergence                ....  False
------------------------------------------------------------------------------
                        ORCA OPTIMIZATION COORDINATE SETUP
------------------------------------------------------------------------------

The optimization will be done in new redundant internal coordinates
Making redundant internal coordinates   ...  (new redundants) done
Evaluating the initial hessian          ...  (Almloef) done
Evaluating the coordinates              ...  done
Calculating the B-matrix                .... done
Calculating the G-matrix                .... done
Diagonalizing the G-matrix              .... done
The first mode is                       ....   18
The number of degrees of freedom        ....   33

    -----------------------------------------------------------------
                    Redundant Internal Coordinates


    -----------------------------------------------------------------
         Definition                    Initial Value    Approx d2E/dq
    -----------------------------------------------------------------
      1. B(C   1,C   0)                  1.5028         0.412766   
      2. B(C   2,C   0)                  1.5247         0.380947   
      3. B(C   3,C   0)                  1.4978         0.420448   
      4. B(H   4,C   1)                  1.0990         0.348337   
      5. B(H   5,C   1)                  1.1192         0.323441   
      6. B(H   6,C   1)                  1.1200         0.322507   
      7. B(H   7,C   2)                  1.1015         0.345261   
      8. B(H   8,C   2)                  1.1004         0.346652   
      9. B(H   9,C   2)                  1.0979         0.349762   
     10. B(H  10,C   3)                  1.1206         0.321795   
     11. B(H  11,C   3)                  1.1201         0.322447   
     12. B(H  12,C   3)                  1.1002         0.346899   
     13. A(C   1,C   0,C   3)          114.2691         0.377226   
     14. A(C   2,C   0,C   3)          112.1479         0.372040   
     15. A(C   1,C   0,C   2)          107.2676         0.370861   
     16. A(H   4,C   1,H   5)          111.3701         0.284518   
     17. A(H   5,C   1,H   6)          104.3590         0.281138   
     18. A(H   4,C   1,H   6)          113.1606         0.284390   
     19. A(C   0,C   1,H   4)          113.6397         0.327890   
     20. A(C   0,C   1,H   5)          107.5283         0.323914   
     21. A(C   0,C   1,H   6)          106.1628         0.323760   
     22. A(H   7,C   2,H   9)          108.6480         0.287612   
     23. A(C   0,C   2,H   9)          112.6582         0.323809   
     24. A(H   7,C   2,H   8)          114.5632         0.287211   
     25. A(C   0,C   2,H   8)          106.1723         0.323335   
     26. A(H   8,C   2,H   9)          107.8987         0.287793   
     27. A(C   0,C   2,H   7)          106.9995         0.323121   
     28. A(H  11,C   3,H  12)          108.4685         0.284199   
     29. A(H  10,C   3,H  12)          108.3748         0.284110   
     30. A(C   0,C   3,H  12)          114.6941         0.328665   
     31. A(H  10,C   3,H  11)          104.4338         0.280909   
     32. A(C   0,C   3,H  11)          107.3003         0.324732   
     33. A(C   0,C   3,H  10)          112.9806         0.324624   
     34. D(H   6,C   1,C   0,C   2)     60.8638         0.012613   
     35. D(H   4,C   1,C   0,C   2)   -174.1160         0.012613   
     36. D(H   6,C   1,C   0,C   3)   -174.1616         0.012613   
     37. D(H   5,C   1,C   0,C   2)    -50.3785         0.012613   
     38. D(H   4,C   1,C   0,C   3)    -49.1413         0.012613   
     39. D(H   5,C   1,C   0,C   3)     74.5961         0.012613   
     40. D(H   7,C   2,C   0,C   1)   -121.5887         0.010826   
     41. D(H   9,C   2,C   0,C   3)   -128.4961         0.010826   
     42. D(H   9,C   2,C   0,C   1)     -2.2514         0.010826   
     43. D(H   8,C   2,C   0,C   3)    -10.6029         0.010826   
     44. D(H   8,C   2,C   0,C   1)    115.6418         0.010826   
     45. D(H   7,C   2,C   0,C   3)    112.1665         0.010826   
     46. D(H  11,C   3,C   0,C   1)   -118.1246         0.013071   
     47. D(H  10,C   3,C   0,C   2)   -110.3372         0.013071   
     48. D(H  10,C   3,C   0,C   1)    127.3142         0.013071   
     49. D(H  12,C   3,C   0,C   2)    124.7820         0.013071   
     50. D(H  12,C   3,C   0,C   1)      2.4335         0.013071   
     51. D(H  11,C   3,C   0,C   2)      4.2239         0.013071   
    -----------------------------------------------------------------

Number of atoms                         .... 13
Number of degrees of freedom            .... 51

         *************************************************************
         *                GEOMETRY OPTIMIZATION CYCLE   1            *
         *************************************************************
---------------------------------
CARTESIAN COORDINATES (ANGSTROEM)
---------------------------------
  C      0.089792   -0.072880    0.485406
  C      0.198814    1.413693    0.293692
  C     -1.328367   -0.476455    0.097331
  C      1.124415   -0.866223   -0.251913
  H      1.214570    1.804462    0.446761
  H     -0.178502    1.649701   -0.733245
  H     -0.557889    1.872880    0.979970
  H     -1.778577   -0.958997    0.979185
  H     -1.231066   -1.130487   -0.782196
  H     -1.949483    0.382719   -0.188123
  H      1.681171   -1.580027    0.408605
  H      0.583725   -1.523462   -0.980085
  H      1.858202   -0.262108   -0.805960

----------------------------
CARTESIAN COORDINATES (A.U.)
----------------------------
  NO LB      ZA    FRAG     MASS         X           Y           Z
   0 C     6.0000    0    12.011    0.169682   -0.137723    0.917284
   1 C     6.0000    0    12.011    0.375704    2.671493    0.554997
   2 C     6.0000    0    12.011   -2.510250   -0.900369    0.183929
   3 C     6.0000    0    12.011    2.124836   -1.636924   -0.476047
   4 H     1.0000    0     1.008    2.295205    3.409939    0.844256
   5 H     1.0000    0     1.008   -0.337320    3.117483   -1.385632
   6 H     1.0000    0     1.008   -1.054257    3.539230    1.851875
   7 H     1.0000    0     1.008   -3.361023   -1.812242    1.850391
   8 H     1.0000    0     1.008   -2.326378   -2.136311   -1.478136
   9 H     1.0000    0     1.008   -3.683989    0.723234   -0.355501
  10 H     1.0000    0     1.008    3.176953   -2.985818    0.772152
  11 H     1.0000    0     1.008    1.103080   -2.878926   -1.852092
  12 H     1.0000    0     1.008    3.511493   -0.495312   -1.523044

--------------------------------
INTERNAL COORDINATES (ANGSTROEM)
--------------------------------
 C      0   0   0     0.000000000000     0.00000000     0.00000000
 C      1   0   0     1.502843750564     0.00000000     0.00000000
 C      1   2   0     1.524680273215   107.26760716     0.00000000
 C      1   2   3     1.497824147068   114.26912129   124.97466497
 H      2   1   3     1.099040846219   113.63974530   185.88404922
 H      2   1   3     1.119225956583   107.52828574   309.62145601
 H      2   1   3     1.120013225128   106.16276382    60.86377775
 H      3   1   2     1.101454630559   106.99952253   238.41125403
 H      3   1   2     1.100360434291   106.17234553   115.64184967
 H      3   1   2     1.097929430268   112.65824126   357.74864415
 H      4   1   2     1.120614751945   112.98055545   127.31423544
 H      4   1   2     1.120063944963   107.30025468   241.87542022
 H      4   1   2     1.100166520488   114.69414937     2.43348389

---------------------------
INTERNAL COORDINATES (A.U.)
---------------------------
 C      0   0   0     0.000000000000     0.00000000     0.00000000
 C      1   0   0     2.839963110641     0.00000000     0.00000000
 C      1   2   0     2.881228158169   107.26760716     0.00000000
 C      1   2   3     2.830477434732   114.26912129   124.97466497
 H      2   1   3     2.076886209347   113.63974530   185.88404922
 H      2   1   3     2.115030539918   107.52828574   309.62145601
 H      2   1   3     2.116518261862   106.16276382    60.86377775
 H      3   1   2     2.081447600696   106.99952253   238.41125403
 H      3   1   2     2.079379869413   106.17234553   115.64184967
 H      3   1   2     2.074785937578   112.65824126   357.74864415
 H      4   1   2     2.117654982808   112.98055545   127.31423544
 H      4   1   2     2.116614108459   107.30025468   241.87542022
 H      4   1   2     2.079013425432   114.69414937     2.43348389

---------------------
BASIS SET INFORMATION
---------------------
There are 2 groups of distinct atoms

 Group   1 Type C   : 7s4p1d contracted to 3s2p1d pattern {511/31/1}
 Group   2 Type H   : 4s contracted to 2s pattern {31}

Atom   0C    basis set group =>   1
Atom   1C    basis set group =>   1
Atom   2C    basis set group =>   1
Atom   3C    basis set group =>   1
Atom   4H    basis set group =>   2
Atom   5H    basis set group =>   2
Atom   6H    basis set group =>   2
Atom   7H    basis set group =>   2
Atom   8H    basis set group =>   2
Atom   9H    basis set group =>   2
Atom  10H    basis set group =>   2
Atom  11H    basis set group =>   2
Atom  12H    basis set group =>   2
---------------------------------
AUXILIARY/J BASIS SET INFORMATION
---------------------------------
There are 2 groups of distinct atoms

 Group   1 Type C   : 12s5p4d2f1g contracted to 6s4p3d1f1g pattern {711111/2111/211/2/1}
 Group   2 Type H   : 5s2p1d contracted to 3s1p1d pattern {311/2/1}

Atom   0C    basis set group =>   1
Atom   1C    basis set group =>   1
Atom   2C    basis set group =>   1
Atom   3C    basis set group =>   1
Atom   4H    basis set group =>   2
Atom   5H    basis set group =>   2
Atom   6H    basis set group =>   2
Atom   7H    basis set group =>   2
Atom   8H    basis set group =>   2
Atom   9H    basis set group =>   2
Atom  10H    basis set group =>   2
Atom  11H    basis set group =>   2
Atom  12H    basis set group =>   2
------------------------------------------------------------------------------
                           ORCA GTO INTEGRAL CALCULATION
------------------------------------------------------------------------------

                         BASIS SET STATISTICS AND STARTUP INFO

 # of primitive gaussian shells          ...   84
 # of primitive gaussian functions       ...  132
 # of contracted shells                  ...   42
 # of contracted basis functions         ...   74
 Highest angular momentum                ...    2
 Maximum contraction depth               ...    5
 Integral package used                   ... LIBINT
 Integral threshhold            Thresh   ...  1.000e-12
 Primitive cut-off              TCut     ...  1.000e-14


------------------------------ INTEGRAL EVALUATION ----------------------------


 * One electron integrals 
 Pre-screening matrix                    ... done
 Shell pair data                         ... done (   0.000 sec)

-------------------------------------------------------------------------------
                                 ORCA SCF
-------------------------------------------------------------------------------

------------
SCF SETTINGS
------------
Hamiltonian:
 Density Functional     Method          .... DFT(GTOs)
 Exchange Functional    Exchange        .... B88
   X-Alpha parameter    XAlpha          ....  0.666667
   Becke's b parameter  XBeta           ....  0.004200
 Correlation Functional Correlation     .... LYP
 LDA part of GGA corr.  LDAOpt          .... VWN-5
 Gradients option       PostSCFGGA      .... off
 Hybrid DFT is turned on
   Fraction HF Exchange ScalHFX         ....  0.200000
   Scaling of DF-GGA-X  ScalDFX         ....  0.720000
   Scaling of DF-GGA-C  ScalDFC         ....  0.810000
   Scaling of DF-LDA-C  ScalLDAC        ....  1.000000
   Perturbative correction              ....  0.000000
   Density functional embedding theory  .... OFF
   NL short-range parameter             ....  4.800000


General Settings:
 Integral files         IntName         .... orca4
 Hartree-Fock type      HFTyp           .... UHF
 Total Charge           Charge          ....    0
 Multiplicity           Mult            ....    2
 Number of Electrons    NEL             ....   33
 Basis Dimension        Dim             ....   74
 Nuclear Repulsion      ENuc            ....    126.5135949373 Eh

Convergence Acceleration:
 DIIS                   CNVDIIS         .... on
   Start iteration      DIISMaxIt       ....    12
   Startup error        DIISStart       ....  0.200000
   # of expansion vecs  DIISMaxEq       ....     5
   Bias factor          DIISBfac        ....   1.050
   Max. coefficient     DIISMaxC        ....  10.000
 Newton-Raphson         CNVNR           .... off
 SOSCF                  CNVSOSCF        .... off
 Level Shifting         CNVShift        .... on
   Level shift para.    LevelShift      ....    0.2500
   Turn off err/grad.   ShiftErr        ....    0.0010
 Zerner damping         CNVZerner       .... off
 Static damping         CNVDamp         .... on
   Fraction old density DampFac         ....    0.7000
   Max. Damping (<1)    DampMax         ....    0.9800
   Min. Damping (>=0)   DampMin         ....    0.0000
   Turn off err/grad.   DampErr         ....    0.1000
 Fernandez-Rico         CNVRico         .... off

SCF Procedure:
 Maximum # iterations   MaxIter         ....   500
 SCF integral mode      SCFMode         .... Direct
   Integral package                     .... LIBINT
 Reset frequency        DirectResetFreq ....    20
 Integral Threshold     Thresh          ....  1.000e-12 Eh
 Primitive CutOff       TCut            ....  1.000e-14 Eh

Convergence Tolerance:
 Convergence Check Mode ConvCheckMode   .... Total+1el-Energy
 Convergence forced     ConvForced      .... 0
 Energy Change          TolE            ....  1.000e-09 Eh
 1-El. energy change                    ....  1.000e-06 Eh
 DIIS Error             TolErr          ....  1.000e-08


Diagonalization of the overlap matrix:
Smallest eigenvalue                        ... 1.954e-03
Time for diagonalization                   ...    0.009 sec
Threshold for overlap eigenvalues          ... 1.000e-08
Number of eigenvalues below threshold      ... 0
Time for construction of square roots      ...    0.574 sec
Total time needed                          ...    0.584 sec

-------------------
DFT GRID GENERATION
-------------------

General Integration Accuracy     IntAcc      ...  4.340
Radial Grid Type                 RadialGrid  ... Gauss-Chebyshev
Angular Grid (max. acc.)         AngularGrid ... Lebedev-110
Angular grid pruning method      GridPruning ... 3 (G Style)
Weight generation scheme         WeightScheme... Becke
Basis function cutoff            BFCut       ...    1.0000e-12
Integration weight cutoff        WCut        ...    1.0000e-14
Grids for H and He will be reduced by one unit

# of grid points (after initial pruning)     ...  13770 (   0.0 sec)
# of grid points (after weights+screening)   ...  12837 (   0.0 sec)
nearest neighbour list constructed           ...    0.0 sec
Grid point re-assignment to atoms done       ...    0.0 sec
Grid point division into batches done        ...    0.0 sec
Reduced shell lists constructed in    0.1 sec

Total number of grid points                  ...    12837
Total number of batches                      ...      208
Average number of points per batch           ...       61
Average number of grid points per atom       ...      987
Average number of shells per batch           ...    37.39 (89.02%)
Average number of basis functions per batch  ...    66.63 (90.04%)
Average number of large shells per batch     ...    32.67 (87.37%)
Average number of large basis fcns per batch ...    57.99 (87.02%)
Maximum spatial batch extension              ...  19.20, 19.64, 20.50 au
Average spatial batch extension              ...   4.01,  4.09,  3.98 au

Time for grid setup =    1.254 sec

------------------------------
INITIAL GUESS: MODEL POTENTIAL
------------------------------
Loading Hartree-Fock densities                     ... done
Calculating cut-offs                               ... done
Setting up the integral package                    ... done
Initializing the effective Hamiltonian             ... done
Starting the Coulomb interaction                   ... done (   0.0 sec)
Reading the grid                                   ... done
Mapping shells                                     ... done
Starting the XC term evaluation                    ... done (   0.1 sec)
  promolecular density results
     # of electrons  =     32.999452350
     EX              =    -23.189924062
     EC              =     -1.032363144
     EX+EC           =    -24.222287207
Transforming the Hamiltonian                       ... done (   0.3 sec)
Diagonalizing the Hamiltonian                      ... done (   0.0 sec)
Back transforming the eigenvectors                 ... done (   0.0 sec)
Now organizing SCF variables                       ... done
                      ------------------
                      INITIAL GUESS DONE (   1.8 sec)
                      ------------------
--------------
SCF ITERATIONS
--------------
ITER       Energy         Delta-E        Max-DP      RMS-DP      [F,P]     Damp
               ***  Starting incremental Fock matrix formation  ***
  0   -157.3543004022   0.000000000000 0.04345003  0.00227306  0.1710802 0.7000
  1   -157.4291808209  -0.074880418778 0.02707360  0.00165961  0.0892058 0.7000
                               ***Turning on DIIS***
  2   -157.4595696578  -0.030388836874 0.04149109  0.00271337  0.0334903 0.0000
  3   -157.5000570026  -0.040487344766 0.01917821  0.00118542  0.0491935 0.0000
  4   -157.5137412492  -0.013684246597 0.00422156  0.00035307  0.0109061 0.0000
  5   -157.5145185517  -0.000777302540 0.00197745  0.00013645  0.0021651 0.0000
  6   -157.5145790093  -0.000060457604 0.00131167  0.00008556  0.0005278 0.0000
  7   -157.5145887075  -0.000009698213 0.00041789  0.00001416  0.0003655 0.0000
  8   -157.5145894278  -0.000000720311 0.00017977  0.00000532  0.0001418 0.0000
  9   -157.5145895773  -0.000000149456 0.00004691  0.00000191  0.0000160 0.0000
 10   -157.5145895922  -0.000000014938 0.00001474  0.00000063  0.0000050 0.0000
 11   -157.5145895947  -0.000000002420 0.00000609  0.00000029  0.0000035 0.0000
 12   -157.5145895952  -0.000000000559 0.00000268  0.00000013  0.0000021 0.0000
 13   -157.5145895954  -0.000000000144 0.00000248  0.00000012  0.0000005 0.0000
 14   -157.5145895954  -0.000000000053 0.00000041  0.00000002  0.0000005 0.0000
 15   -157.5145895954   0.000000000008 0.00000047  0.00000002  0.0000002 0.0000
                 **** Energy Check signals convergence ****

 Fermi smearing  (ALPHA): E(HOMO(Eh)) = -0.319967 MUE = -0.068653 gap=   6.931 eV
 Fermi smearing   (BETA): E(HOMO(Eh)) = -0.313959 MUE = -0.179841 gap=   7.286 eV

N_FOD(alpha) =  0.000000
 N_FOD(beta) =  0.000000
       N_FOD =  0.000000

               *****************************************************
               *                     SUCCESS                       *
               *           SCF CONVERGED AFTER  16 CYCLES          *
               *****************************************************

Setting up the final grid:

General Integration Accuracy     IntAcc      ...  4.670
Radial Grid Type                 RadialGrid  ... Gauss-Chebyshev
Angular Grid (max. acc.)         AngularGrid ... Lebedev-302
Angular grid pruning method      GridPruning ... 3 (G Style)
Weight generation scheme         WeightScheme... Becke
Basis function cutoff            BFCut       ...    1.0000e-12
Integration weight cutoff        WCut        ...    1.0000e-14
Grids for H and He will be reduced by one unit

# of grid points (after initial pruning)     ...  55394 (   0.0 sec)
# of grid points (after weights+screening)   ...  51202 (   0.1 sec)
nearest neighbour list constructed           ...    0.0 sec
Grid point re-assignment to atoms done       ...    0.0 sec
Grid point division into batches done        ...    0.2 sec
Reduced shell lists constructed in    0.4 sec

Total number of grid points                  ...    51202
Total number of batches                      ...      806
Average number of points per batch           ...       63
Average number of grid points per atom       ...     3939
Average number of shells per batch           ...    34.97 (83.26%)
Average number of basis functions per batch  ...    62.16 (84.00%)
Average number of large shells per batch     ...    29.67 (84.85%)
Average number of large basis fcns per batch ...    52.28 (84.11%)
Maximum spatial batch extension              ...  18.57, 16.49, 19.38 au
Average spatial batch extension              ...   2.62,  2.62,  2.61 au

Final grid set up in    1.0 sec
Final integration                            ... done (   3.2 sec)
Change in XC energy                          ...     0.000389416
Integrated number of electrons               ...    33.000037769
Previous integrated no of electrons          ...    33.003399144

----------------
TOTAL SCF ENERGY
----------------

Total Energy       :         -157.51420018 Eh           -4286.17929 eV

Components:
Nuclear Repulsion  :          126.51359494 Eh            3442.60994 eV
Electronic Energy  :         -284.02779512 Eh           -7728.78923 eV
One Electron Energy:         -460.58939570 Eh          -12533.27464 eV
Two Electron Energy:          176.56160059 Eh            4804.48541 eV

Virial components:
Potential Energy   :         -313.40060012 Eh           -8528.06389 eV
Kinetic Energy     :          155.88639994 Eh            4241.88460 eV
Virial Ratio       :            2.01044222


DFT components:
N(Alpha)           :       17.000021158330 electrons
N(Beta)            :       16.000016610756 electrons
N(Total)           :       33.000037769086 electrons
E(X)               :      -18.885718439770 Eh       
E(C)               :       -1.222717513768 Eh       
E(XC)              :      -20.108435953539 Eh       
DFET-embed. en.    :        0.000000000000 Eh       

---------------
SCF CONVERGENCE
---------------

  Last Energy change         ...    9.1802e-12  Tolerance :   1.0000e-09
  Last MAX-Density change    ...    2.5029e-07  Tolerance :   1.0000e-08
  Last RMS-Density change    ...    1.6909e-08  Tolerance :   1.0000e-09
  Last DIIS Error            ...    2.6359e-08  Tolerance :   1.0000e-08

             **** THE GBW FILE WAS UPDATED (orca4.gbw) ****
             **** DENSITY FILE WAS UPDATED (orca4.scfp) ****
             **** ENERGY FILE WAS UPDATED (orca4.en.tmp) ****
             **** THE GBW FILE WAS UPDATED (orca4.gbw) ****
             **** DENSITY FILE WAS UPDATED (orca4.scfp) ****
----------------
ORBITAL ENERGIES
----------------
                 SPIN UP ORBITALS
  NO   OCC          E(Eh)            E(eV) 
   0   1.0000     -10.188072      -277.2315 
   1   1.0000     -10.169588      -276.7286 
   2   1.0000     -10.169014      -276.7129 
   3   1.0000     -10.164910      -276.6013 
   4   1.0000      -0.799260       -21.7490 
   5   1.0000      -0.677889       -18.4463 
   6   1.0000      -0.669701       -18.2235 
   7   1.0000      -0.524501       -14.2724 
   8   1.0000      -0.450847       -12.2682 
   9   1.0000      -0.438145       -11.9225 
  10   1.0000      -0.433088       -11.7849 
  11   1.0000      -0.389546       -10.6001 
  12   1.0000      -0.387846       -10.5538 
  13   1.0000      -0.352775        -9.5995 
  14   1.0000      -0.336306        -9.1514 
  15   1.0000      -0.319967        -8.7067 
  16   1.0000      -0.196001        -5.3335 
  17   0.0000       0.058695         1.5972 
  18   0.0000       0.100466         2.7338 
  19   0.0000       0.107964         2.9378 
  20   0.0000       0.116410         3.1677 
  21   0.0000       0.125286         3.4092 
  22   0.0000       0.133341         3.6284 
  23   0.0000       0.138040         3.7563 
  24   0.0000       0.161497         4.3946 
  25   0.0000       0.175635         4.7793 
  26   0.0000       0.207589         5.6488 
  27   0.0000       0.283604         7.7173 
  28   0.0000       0.294569         8.0156 
  29   0.0000       0.417884        11.3712 
  30   0.0000       0.430148        11.7049 
  31   0.0000       0.437185        11.8964 
  32   0.0000       0.500180        13.6106 
  33   0.0000       0.505749        13.7621 
  34   0.0000       0.538451        14.6520 
  35   0.0000       0.560811        15.2604 
  36   0.0000       0.574428        15.6310 
  37   0.0000       0.608501        16.5581 
  38   0.0000       0.645159        17.5557 
  39   0.0000       0.664809        18.0904 
  40   0.0000       0.677879        18.4460 
  41   0.0000       0.679773        18.4976 
  42   0.0000       0.689559        18.7639 
  43   0.0000       0.697641        18.9838 
  44   0.0000       0.710060        19.3217 
  45   0.0000       0.725519        19.7424 
  46   0.0000       0.730387        19.8749 
  47   0.0000       0.738252        20.0889 
  48   0.0000       0.747079        20.3291 
  49   0.0000       0.758956        20.6522 
  50   0.0000       0.772777        21.0283 
  51   0.0000       0.911857        24.8129 
  52   0.0000       0.952899        25.9297 
  53   0.0000       0.982936        26.7470 
  54   0.0000       1.387398        37.7530 
  55   0.0000       1.410531        38.3825 
  56   0.0000       1.759812        47.8869 
  57   0.0000       1.777525        48.3689 
  58   0.0000       1.793409        48.8011 
  59   0.0000       1.818833        49.4930 
  60   0.0000       1.878155        51.1072 
  61   0.0000       1.933627        52.6167 
  62   0.0000       1.979788        53.8728 
  63   0.0000       2.054947        55.9180 
  64   0.0000       2.091330        56.9080 
  65   0.0000       2.137760        58.1714 
  66   0.0000       2.162310        58.8394 
  67   0.0000       2.173980        59.1570 
  68   0.0000       2.199398        59.8487 
  69   0.0000       2.407379        65.5081 
  70   0.0000       2.420370        65.8616 
  71   0.0000       2.474854        67.3442 
  72   0.0000       2.691715        73.2453 
  73   0.0000       2.720684        74.0336 

                 SPIN DOWN ORBITALS
  NO   OCC          E(Eh)            E(eV) 
   0   1.0000     -10.173254      -276.8283 
   1   1.0000     -10.170045      -276.7410 
   2   1.0000     -10.169399      -276.7234 
   3   1.0000     -10.165285      -276.6115 
   4   1.0000      -0.784383       -21.3441 
   5   1.0000      -0.675125       -18.3711 
   6   1.0000      -0.667354       -18.1596 
   7   1.0000      -0.506325       -13.7778 
   8   1.0000      -0.439559       -11.9610 
   9   1.0000      -0.432737       -11.7754 
  10   1.0000      -0.426930       -11.6174 
  11   1.0000      -0.384336       -10.4583 
  12   1.0000      -0.381056       -10.3691 
  13   1.0000      -0.351210        -9.5569 
  14   1.0000      -0.330296        -8.9878 
  15   1.0000      -0.313959        -8.5432 
  16   0.0000      -0.046204        -1.2573 
  17   0.0000       0.061704         1.6791 
  18   0.0000       0.101881         2.7723 
  19   0.0000       0.109099         2.9687 
  20   0.0000       0.119273         3.2456 
  21   0.0000       0.129103         3.5131 
  22   0.0000       0.133987         3.6460 
  23   0.0000       0.143522         3.9054 
  24   0.0000       0.163201         4.4409 
  25   0.0000       0.179664         4.8889 
  26   0.0000       0.216304         5.8859 
  27   0.0000       0.293239         7.9794 
  28   0.0000       0.303897         8.2695 
  29   0.0000       0.422786        11.5046 
  30   0.0000       0.433298        11.7906 
  31   0.0000       0.446234        12.1426 
  32   0.0000       0.510208        13.8835 
  33   0.0000       0.519754        14.1432 
  34   0.0000       0.566747        15.4220 
  35   0.0000       0.576279        15.6814 
  36   0.0000       0.587852        15.9963 
  37   0.0000       0.618009        16.8169 
  38   0.0000       0.650108        17.6903 
  39   0.0000       0.665828        18.1181 
  40   0.0000       0.682067        18.5600 
  41   0.0000       0.685429        18.6515 
  42   0.0000       0.691168        18.8076 
  43   0.0000       0.700686        19.0666 
  44   0.0000       0.712032        19.3754 
  45   0.0000       0.727306        19.7910 
  46   0.0000       0.735791        20.0219 
  47   0.0000       0.741469        20.1764 
  48   0.0000       0.755042        20.5457 
  49   0.0000       0.761705        20.7271 
  50   0.0000       0.782030        21.2801 
  51   0.0000       0.918747        25.0004 
  52   0.0000       0.962055        26.1788 
  53   0.0000       0.987540        26.8723 
  54   0.0000       1.404164        38.2093 
  55   0.0000       1.424672        38.7673 
  56   0.0000       1.761787        47.9407 
  57   0.0000       1.799238        48.9598 
  58   0.0000       1.813701        49.3533 
  59   0.0000       1.823824        49.6288 
  60   0.0000       1.886184        51.3257 
  61   0.0000       1.947475        52.9935 
  62   0.0000       1.991161        54.1822 
  63   0.0000       2.062986        56.1367 
  64   0.0000       2.097702        57.0814 
  65   0.0000       2.138275        58.1854 
  66   0.0000       2.163155        58.8625 
  67   0.0000       2.177743        59.2594 
  68   0.0000       2.203591        59.9628 
  69   0.0000       2.431443        66.1629 
  70   0.0000       2.446056        66.5606 
  71   0.0000       2.499505        68.0150 
  72   0.0000       2.705721        73.6264 
  73   0.0000       2.733814        74.3909 

                    ********************************
                    * MULLIKEN POPULATION ANALYSIS *
                    ********************************

------------------------------------------
FOD BASED MULLIKEN REDUCED ORBITAL CHARGES
------------------------------------------
  0 C s       :     0.000000  s :     0.000000
      pz      :     0.000000  p :     0.000000
      px      :     0.000000
      py      :     0.000000
      dz2     :     0.000000  d :     0.000000
      dxz     :     0.000000
      dyz     :     0.000000
      dx2y2   :     0.000000
      dxy     :     0.000000
  1 C s       :    -0.000000  s :    -0.000000
      pz      :     0.000000  p :     0.000000
      px      :     0.000000
      py      :     0.000000
      dz2     :     0.000000  d :     0.000000
      dxz     :     0.000000
      dyz     :     0.000000
      dx2y2   :     0.000000
      dxy     :     0.000000
  2 C s       :    -0.000000  s :    -0.000000
      pz      :     0.000000  p :     0.000000
      px      :     0.000000
      py      :     0.000000
      dz2     :     0.000000  d :     0.000000
      dxz     :     0.000000
      dyz     :     0.000000
      dx2y2   :     0.000000
      dxy     :     0.000000
  3 C s       :    -0.000000  s :    -0.000000
      pz      :     0.000000  p :     0.000000
      px      :     0.000000
      py      :     0.000000
      dz2     :     0.000000  d :     0.000000
      dxz     :     0.000000
      dyz     :     0.000000
      dx2y2   :     0.000000
      dxy     :     0.000000
  4 H s       :     0.000000  s :     0.000000
  5 H s       :     0.000000  s :     0.000000
  6 H s       :     0.000000  s :     0.000000
  7 H s       :     0.000000  s :     0.000000
  8 H s       :     0.000000  s :     0.000000
  9 H s       :     0.000000  s :     0.000000
 10 H s       :     0.000000  s :     0.000000
 11 H s       :     0.000000  s :     0.000000
 12 H s       :     0.000000  s :     0.000000


                     *******************************
                     * LOEWDIN POPULATION ANALYSIS *
                     *******************************

-------------------------------------------
LOEWDIN ATOMIC CHARGES AND SPIN POPULATIONS
-------------------------------------------
   0 C :   -0.080087    0.842473
   1 C :   -0.311562   -0.010694
   2 C :   -0.320943   -0.009623
   3 C :   -0.318265   -0.008300
   4 H :    0.108395    0.002712
   5 H :    0.114106    0.053874
   6 H :    0.113820    0.013723
   7 H :    0.123979    0.022851
   8 H :    0.114371    0.016402
   9 H :    0.111669    0.010917
  10 H :    0.119841    0.031256
  11 H :    0.110289    0.020435
  12 H :    0.114387    0.013974

----------------------------------------------------
LOEWDIN REDUCED ORBITAL CHARGES AND SPIN POPULATIONS
----------------------------------------------------
CHARGE
  0 C s       :     2.934447  s :     2.934447
      pz      :     0.978085  p :     3.053255
      px      :     1.033355
      py      :     1.041814
      dz2     :     0.009306  d :     0.092385
      dxz     :     0.016782
      dyz     :     0.013211
      dx2y2   :     0.030853
      dxy     :     0.022233
  1 C s       :     2.960426  s :     2.960426
      pz      :     1.095890  p :     3.272619
      px      :     1.101269
      py      :     1.075460
      dz2     :     0.016529  d :     0.078517
      dxz     :     0.012465
      dyz     :     0.013937
      dx2y2   :     0.018387
      dxy     :     0.017199
  2 C s       :     2.958336  s :     2.958336
      pz      :     1.100137  p :     3.287785
      px      :     1.077716
      py      :     1.109933
      dz2     :     0.011735  d :     0.074823
      dxz     :     0.014831
      dyz     :     0.018571
      dx2y2   :     0.011038
      dxy     :     0.018647
  3 C s       :     2.956469  s :     2.956469
      pz      :     1.095358  p :     3.285477
      px      :     1.095883
      py      :     1.094236
      dz2     :     0.004969  d :     0.076318
      dxz     :     0.021421
      dyz     :     0.021531
      dx2y2   :     0.006178
      dxy     :     0.022220
  4 H s       :     0.891605  s :     0.891605
  5 H s       :     0.885894  s :     0.885894
  6 H s       :     0.886180  s :     0.886180
  7 H s       :     0.876021  s :     0.876021
  8 H s       :     0.885629  s :     0.885629
  9 H s       :     0.888331  s :     0.888331
 10 H s       :     0.880159  s :     0.880159
 11 H s       :     0.889711  s :     0.889711
 12 H s       :     0.885613  s :     0.885613

SPIN
  0 C s       :     0.080814  s :     0.080814
      pz      :     0.695200  p :     0.764437
      px      :     0.026070
      py      :     0.043168
      dz2     :     0.000010  d :    -0.002779
      dxz     :    -0.000872
      dyz     :    -0.000548
      dx2y2   :    -0.001154
      dxy     :    -0.000215
  1 C s       :    -0.001135  s :    -0.001135
      pz      :    -0.008973  p :    -0.022383
      px      :    -0.002437
      py      :    -0.010973
      dz2     :     0.002215  d :     0.012825
      dxz     :     0.000724
      dyz     :     0.008920
      dx2y2   :     0.000642
      dxy     :     0.000323
  2 C s       :    -0.000147  s :    -0.000147
      pz      :    -0.003825  p :    -0.020173
      px      :    -0.011045
      py      :    -0.005303
      dz2     :     0.000885  d :     0.010697
      dxz     :     0.006040
      dyz     :     0.001238
      dx2y2   :     0.000563
      dxy     :     0.001971
  3 C s       :    -0.000629  s :    -0.000629
      pz      :    -0.005891  p :    -0.020706
      px      :    -0.006799
      py      :    -0.008016
      dz2     :     0.003690  d :     0.013036
      dxz     :     0.002505
      dyz     :     0.002117
      dx2y2   :     0.000126
      dxy     :     0.004597
  4 H s       :     0.002712  s :     0.002712
  5 H s       :     0.053874  s :     0.053874
  6 H s       :     0.013723  s :     0.013723
  7 H s       :     0.022851  s :     0.022851
  8 H s       :     0.016402  s :     0.016402
  9 H s       :     0.010917  s :     0.010917
 10 H s       :     0.031256  s :     0.031256
 11 H s       :     0.020435  s :     0.020435
 12 H s       :     0.013974  s :     0.013974


                      *****************************
                      * MAYER POPULATION ANALYSIS *
                      *****************************

  NA   - Mulliken gross atomic population
  ZA   - Total nuclear charge
  QA   - Mulliken gross atomic charge
  VA   - Mayer's total valence
  BVA  - Mayer's bonded valence
  FA   - Mayer's free valence

  ATOM       NA         ZA         QA         VA         BVA        FA
  0 C      6.1031     6.0000    -0.1031     4.1288     3.3965     0.7322
  1 C      6.2562     6.0000    -0.2562     3.9539     3.9510     0.0029
  2 C      6.2491     6.0000    -0.2491     3.9194     3.9169     0.0024
  3 C      6.2499     6.0000    -0.2499     3.9144     3.9117     0.0027
  4 H      0.9033     1.0000     0.0967     0.9558     0.9558     0.0000
  5 H      0.9066     1.0000     0.0934     0.9535     0.9488     0.0048
  6 H      0.9017     1.0000     0.0983     0.9519     0.9517     0.0002
  7 H      0.8921     1.0000     0.1079     0.9527     0.9522     0.0006
  8 H      0.9099     1.0000     0.0901     0.9701     0.9695     0.0005
  9 H      0.9109     1.0000     0.0891     0.9697     0.9695     0.0002
 10 H      0.8958     1.0000     0.1042     0.9504     0.9492     0.0011
 11 H      0.9161     1.0000     0.0839     0.9674     0.9667     0.0008
 12 H      0.9054     1.0000     0.0946     0.9637     0.9634     0.0004

  Mayer bond orders larger than 0.100000
B(  0-C ,  1-C ) :   1.1144 B(  0-C ,  2-C ) :   1.0797 B(  0-C ,  3-C ) :   1.0923 
B(  1-C ,  4-H ) :   0.9523 B(  1-C ,  5-H ) :   0.9277 B(  1-C ,  6-H ) :   0.9527 
B(  2-C ,  7-H ) :   0.9484 B(  2-C ,  8-H ) :   0.9435 B(  2-C ,  9-H ) :   0.9547 
B(  3-C , 10-H ) :   0.9447 B(  3-C , 11-H ) :   0.9465 B(  3-C , 12-H ) :   0.9529 


-------
TIMINGS
-------

Total SCF time: 0 days 0 hours 2 min 8 sec 

Total time                  ....     128.461 sec
Sum of individual times     ....     110.745 sec  ( 86.2%)

Fock matrix formation       ....      93.833 sec  ( 73.0%)
  XC integration            ....      41.690 sec  ( 44.4% of F)
    Basis function eval.    ....       1.032 sec  (  2.5% of XC)
    Density eval.           ....       0.702 sec  (  1.7% of XC)
    XC-Functional eval.     ....       0.451 sec  (  1.1% of XC)
    XC-Potential eval.      ....       0.982 sec  (  2.4% of XC)
Diagonalization             ....       0.054 sec  (  0.0%)
Density matrix formation    ....       6.255 sec  (  4.9%)
Population analysis         ....       2.185 sec  (  1.7%)
Initial guess               ....       0.498 sec  (  0.4%)
Orbital Transformation      ....       0.000 sec  (  0.0%)
Orbital Orthonormalization  ....       0.000 sec  (  0.0%)
DIIS solution               ....       5.692 sec  (  4.4%)
Grid generation             ....       2.229 sec  (  1.7%)


-------------------------------------------------------------------------------
                          DFT DISPERSION CORRECTION                            
                                                                               
                              DFTD3 V3.1  Rev 1                                
                          USING Becke-Johnson damping                          
-------------------------------------------------------------------------------
The B3LYP functional is recognized
Active option DFTDOPT                   ...         4   

molecular C6(AA) [au] = 1132.691304 


            DFT-D V3
 parameters
 s6 scaling factor         :     1.0000 
 a1 scaling factor         :     0.3981 
 s8 scaling factor         :     1.9889 
 a2 scaling factor         :     4.4211 
 ad hoc parameters k1-k3   :    16.0000     1.3333    -4.0000 

 Edisp/kcal,au: -9.045677578810  -0.014415203256 
 E6   /kcal   :  -4.485213145 
 E8   /kcal   :  -4.560464434 
 % E8         :  50.415951644 

-------------------------   ----------------
Dispersion correction           -0.014415203
-------------------------   ----------------


-------------------------   --------------------
FINAL SINGLE POINT ENERGY      -157.528615383095
-------------------------   --------------------

------------------------------------------------------------------------------
                         ORCA SCF GRADIENT CALCULATION
------------------------------------------------------------------------------

Gradient of the Kohn-Sham DFT energy:
Kohn-Sham wavefunction type      ... UKS
Hartree-Fock exchange scaling    ...    0.200
Number of operators              ...    2
Number of atoms                  ...   13
Basis set dimensions             ...   74
Integral neglect threshold       ... 1.0e-12
Integral primitive cutoff        ... 1.0e-14

Nuclear repulsion gradient       ... done
One Electron Gradient            ... done
Pre-screening matrix             ... done
Starting the two electron gradient:
Two electron gradient done
Exchange-correlation gradient    ... done
Dispersion correction            ... done

------------------
CARTESIAN GRADIENT
------------------

   1   C   :    0.010346180   -0.019692949    0.043247253
   2   C   :    0.012275086   -0.000851047   -0.017481371
   3   C   :   -0.010278511    0.005820915   -0.018845379
   4   C   :   -0.003789265    0.028895136   -0.007696122
   5   H   :   -0.000645869   -0.006052400   -0.001006332
   6   H   :   -0.008341391   -0.002275351   -0.002131954
   7   H   :   -0.011894655   -0.006886347    0.003290205
   8   H   :    0.011103359    0.009218931    0.004810645
   9   H   :    0.012566902    0.007471542   -0.002922746
  10   H   :    0.003439700   -0.003286354   -0.002245951
  11   H   :   -0.000267579   -0.005705067    0.003867050
  12   H   :   -0.011502061   -0.003314971   -0.001639954
  13   H   :   -0.003011897   -0.003342038   -0.001245344

Difference to translation invariance:
           :    0.0000000000   -0.0000000000    0.0000000000

Norm of the cartesian gradient     ...    0.0723822934
RMS gradient                       ...    0.0115904430
MAX gradient                       ...    0.0432472533

-------
TIMINGS
-------

Total SCF gradient time            ...        4.403 sec

One electron gradient       ....       0.030 sec  (  0.7%)
Prescreening matrices       ....       0.029 sec  (  0.7%)
Two electron gradient       ....       1.419 sec  ( 32.2%)
XC gradient                 ....       2.770 sec  ( 62.9%)
------------------------------------------------------------------------------
                         ORCA GEOMETRY RELAXATION STEP
------------------------------------------------------------------------------

Reading the OPT-File                    .... done
Getting information on internals        .... done
Copying old internal coords+grads       .... done
Making the new internal coordinates     .... (new redundants).... done
Validating the new internal coordinates .... (new redundants).... done
Calculating the B-matrix                .... done
Calculating the G,G- and P matrices     .... done
Transforming gradient to internals      .... done
Projecting the internal gradient        .... done
Number of atoms                         ....  13
Number of internal coordinates          ....  51
Current Energy                          ....  -157.528615383 Eh
Current gradient norm                   ....     0.072382293 Eh/bohr
Maximum allowed component of the step   ....  0.300
Current trust radius                    ....  0.300
Evaluating the initial hessian          ....  (Almloef) done
Projecting the Hessian                  .... done
Forming the augmented Hessian           .... done
Diagonalizing the augmented Hessian     .... done
Last element of RFO vector              ....  0.886082182
Lowest eigenvalues of augmented Hessian:
 -0.025394273  0.010887313  0.012663967  0.013090416  0.055728212
Length of the computed step             ....  0.523120972
Warning: the length of the step is outside the trust region - taking restricted step instead
The input lambda is                     ....    -0.025394
   iter:   1  x=   -0.049327  g=    7.673835 f(x)=     0.183656
   iter:   2  x=   -0.070939  g=    3.073745 f(x)=     0.066429
   iter:   3  x=   -0.081531  g=    1.653700 f(x)=     0.017517
   iter:   4  x=   -0.083178  g=    1.278521 f(x)=     0.002105
   iter:   5  x=   -0.083210  g=    1.231112 f(x)=     0.000039
   iter:   6  x=   -0.083210  g=    1.230216 f(x)=     0.000000
   iter:   7  x=   -0.083210  g=    1.230216 f(x)=     0.000000
The output lambda is                    ....    -0.083210 (7 iterations)
The final length of the internal step   ....  0.300000000
Converting the step to cartesian space:
 Initial RMS(Int)=    0.0420084025
Transforming coordinates:
 Iter   0:  RMS(Cart)=    0.0844797614 RMS(Int)=    0.0425860602
 Iter   1:  RMS(Cart)=    0.0036538426 RMS(Int)=    0.0022264857
 Iter   2:  RMS(Cart)=    0.0001504778 RMS(Int)=    0.0000930197
 Iter   3:  RMS(Cart)=    0.0000118884 RMS(Int)=    0.0000104779
 Iter   4:  RMS(Cart)=    0.0000008494 RMS(Int)=    0.0000005192
 Iter   5:  RMS(Cart)=    0.0000000648 RMS(Int)=    0.0000000613
done
Storing new coordinates                 .... done

                                .--------------------.
          ----------------------|Geometry convergence|-------------------------
          Item                value                   Tolerance       Converged
          ---------------------------------------------------------------------
          RMS gradient        0.0090167049            0.0001000000      NO
          MAX gradient        0.0182807320            0.0003000000      NO
          RMS step            0.0420084025            0.0020000000      NO
          MAX step            0.0878616139            0.0040000000      NO
          ........................................................
          Max(Bonds)      0.0192      Max(Angles)    3.57
          Max(Dihed)        5.03      Max(Improp)    0.00
          ---------------------------------------------------------------------

The optimization has not yet converged - more geometry cycles are needed


    ---------------------------------------------------------------------------
                         Redundant Internal Coordinates
                            (Angstroem and degrees)

        Definition                    Value    dE/dq     Step     New-Value
    ----------------------------------------------------------------------------
     1. B(C   1,C   0)                1.5028 -0.014301  0.0153    1.5181   
     2. B(C   2,C   0)                1.5247 -0.015859  0.0181    1.5428   
     3. B(C   3,C   0)                1.4978 -0.018281  0.0192    1.5170   
     4. B(H   4,C   1)                1.0990 -0.002889  0.0035    1.1026   
     5. B(H   5,C   1)                1.1192  0.004291 -0.0056    1.1136   
     6. B(H   6,C   1)                1.1200  0.007227 -0.0094    1.1106   
     7. B(H   7,C   2)                1.1015 -0.004724  0.0058    1.1073   
     8. B(H   8,C   2)                1.1004 -0.000996  0.0012    1.1016   
     9. B(H   9,C   2)                1.0979 -0.003934  0.0048    1.1027   
    10. B(H  10,C   3)                1.1206  0.005781 -0.0076    1.1131   
    11. B(H  11,C   3)                1.1201  0.008564 -0.0112    1.1089   
    12. B(H  12,C   3)                1.1002 -0.003218  0.0040    1.1041   
    13. A(C   1,C   0,C   3)          114.27  0.007113    0.26    114.53   
    14. A(C   2,C   0,C   3)          112.15 -0.010405    3.33    115.48   
    15. A(C   1,C   0,C   2)          107.27 -0.011905    3.57    110.83   
    16. A(H   4,C   1,H   5)          111.37  0.006832   -1.32    110.05   
    17. A(H   5,C   1,H   6)          104.36  0.001412    0.37    104.73   
    18. A(H   4,C   1,H   6)          113.16  0.011249   -1.81    111.35   
    19. A(C   0,C   1,H   4)          113.64 -0.001353    0.04    113.68   
    20. A(C   0,C   1,H   5)          107.53 -0.004130    0.65    108.18   
    21. A(C   0,C   1,H   6)          106.16 -0.015200    2.32    108.49   
    22. A(H   7,C   2,H   9)          108.65  0.006896   -1.07    107.58   
    23. A(C   0,C   2,H   9)          112.66  0.004549   -0.52    112.14   
    24. A(H   7,C   2,H   8)          114.56  0.017408   -2.79    111.77   
    25. A(C   0,C   2,H   8)          106.17 -0.017172    2.52    108.69   
    26. A(H   8,C   2,H   9)          107.90  0.004021   -0.32    107.58   
    27. A(C   0,C   2,H   7)          107.00 -0.015803    2.19    109.19   
    28. A(H  11,C   3,H  12)          108.47  0.003448   -0.35    108.12   
    29. A(H  10,C   3,H  12)          108.37  0.001766   -0.77    107.61   
    30. A(C   0,C   3,H  12)          114.69  0.006560   -1.10    113.60   
    31. A(H  10,C   3,H  11)          104.43  0.002801    0.04    104.47   
    32. A(C   0,C   3,H  11)          107.30 -0.014223    2.31    109.61   
    33. A(C   0,C   3,H  10)          112.98 -0.000714    0.01    112.99   
    34. D(H   6,C   1,C   0,C   2)     60.86  0.006477   -3.28     57.58   
    35. D(H   4,C   1,C   0,C   2)   -174.12  0.008725   -3.85   -177.96   
    36. D(H   6,C   1,C   0,C   3)   -174.16 -0.011231    3.96   -170.20   
    37. D(H   5,C   1,C   0,C   2)    -50.38  0.013529   -5.03    -55.41   
    38. D(H   4,C   1,C   0,C   3)    -49.14 -0.008983    3.40    -45.75   
    39. D(H   5,C   1,C   0,C   3)     74.60 -0.004179    2.21     76.80   
    40. D(H   7,C   2,C   0,C   1)   -121.59 -0.002057    1.96   -119.63   
    41. D(H   9,C   2,C   0,C   3)   -128.50  0.005562   -3.45   -131.95   
    42. D(H   9,C   2,C   0,C   1)     -2.25 -0.001184    1.77     -0.48   
    43. D(H   8,C   2,C   0,C   3)    -10.60  0.002198   -2.54    -13.15   
    44. D(H   8,C   2,C   0,C   1)    115.64 -0.004548    2.68    118.32   
    45. D(H   7,C   2,C   0,C   3)    112.17  0.004689   -3.25    108.91   
    46. D(H  11,C   3,C   0,C   1)   -118.12  0.007618   -3.24   -121.37   
    47. D(H  10,C   3,C   0,C   2)   -110.34 -0.005450    2.91   -107.43   
    48. D(H  10,C   3,C   0,C   1)    127.31  0.013265   -4.70    122.62   
    49. D(H  12,C   3,C   0,C   2)    124.78 -0.012775    4.88    129.66   
    50. D(H  12,C   3,C   0,C   1)      2.43  0.005939   -2.73     -0.29   
    51. D(H  11,C   3,C   0,C   2)      4.22 -0.011096    4.37      8.59   
    ----------------------------------------------------------------------------

Time needed for optimization step       :     1.49 sec

         *************************************************************
         *                GEOMETRY OPTIMIZATION CYCLE   2            *
         *************************************************************
---------------------------------
CARTESIAN COORDINATES (ANGSTROEM)
---------------------------------
  C      0.062494   -0.071309    0.424381
  C      0.214118    1.432966    0.287261
  C     -1.383132   -0.504923    0.104608
  C      1.148958   -0.872248   -0.268062
  H      1.239945    1.793163    0.470633
  H     -0.115148    1.723239   -0.736225
  H     -0.514192    1.923435    0.967268
  H     -1.820925   -0.995812    0.995369
  H     -1.364450   -1.180293   -0.765460
  H     -2.026785    0.352543   -0.153255
  H      1.694803   -1.552612    0.423359
  H      0.691584   -1.548723   -1.018282
  H      1.899536   -0.246609   -0.782166

----------------------------
CARTESIAN COORDINATES (A.U.)
----------------------------
  NO LB      ZA    FRAG     MASS         X           Y           Z
   0 C     6.0000    0    12.011    0.118096   -0.134755    0.801963
   1 C     6.0000    0    12.011    0.404624    2.707913    0.542845
   2 C     6.0000    0    12.011   -2.613741   -0.954166    0.197680
   3 C     6.0000    0    12.011    2.171216   -1.648309   -0.506563
   4 H     1.0000    0     1.008    2.343157    3.388587    0.889367
   5 H     1.0000    0     1.008   -0.217598    3.256450   -1.391264
   6 H     1.0000    0     1.008   -0.971683    3.634764    1.827871
   7 H     1.0000    0     1.008   -3.441049   -1.881812    1.880974
   8 H     1.0000    0     1.008   -2.578437   -2.230430   -1.446510
   9 H     1.0000    0     1.008   -3.830069    0.666209   -0.289610
  10 H     1.0000    0     1.008    3.202714   -2.934012    0.800032
  11 H     1.0000    0     1.008    1.306904   -2.926663   -1.924275
  12 H     1.0000    0     1.008    3.589603   -0.466024   -1.478079

--------------------------------
INTERNAL COORDINATES (ANGSTROEM)
--------------------------------
 C      0   0   0     0.000000000000     0.00000000     0.00000000
 C      1   0   0     1.518102410988     0.00000000     0.00000000
 C      1   2   0     1.542760764616   110.69362299     0.00000000
 C      1   2   3     1.517031132915   114.22985226   132.20741030
 H      2   1   3     1.102582892257   113.67898969   182.04306300
 H      2   1   3     1.113642154464   108.16522236   304.57777740
 H      2   1   3     1.110587124105   108.46981439    57.60209412
 H      3   1   2     1.107289211774   109.16810967   240.47800672
 H      3   1   2     1.101586044758   108.67115436   118.38692231
 H      3   1   2     1.102737102281   112.13907371   359.59988041
 H      4   1   2     1.113061189023   112.97914794   122.62236049
 H      4   1   2     1.108892153354   109.60268210   238.65349918
 H      4   1   2     1.104125831441   113.59192496   359.70648833

---------------------------
INTERNAL COORDINATES (A.U.)
---------------------------
 C      0   0   0     0.000000000000     0.00000000     0.00000000
 C      1   0   0     2.868797800012     0.00000000     0.00000000
 C      1   2   0     2.915395335283   110.69362299     0.00000000
 C      1   2   3     2.866773377841   114.22985226   132.20741030
 H      2   1   3     2.083579706312   113.67898969   182.04306300
 H      2   1   3     2.104478683127   108.16522236   304.57777740
 H      2   1   3     2.098705512417   108.46981439    57.60209412
 H      3   1   2     2.092473361299   109.16810967   240.47800672
 H      3   1   2     2.081695937543   108.67115436   118.38692231
 H      3   1   2     2.083871121024   112.13907371   359.59988041
 H      4   1   2     2.103380817550   112.97914794   122.62236049
 H      4   1   2     2.095502481894   109.60268210   238.65349918
 H      4   1   2     2.086495438811   113.59192496   359.70648833


Diagonalization of the overlap matrix:
Smallest eigenvalue                        ... 2.437e-03
Time for diagonalization                   ...    0.001 sec
Threshold for overlap eigenvalues          ... 1.000e-08
Number of eigenvalues below threshold      ... 0
Time for construction of square roots      ...    0.464 sec
Total time needed                          ...    0.465 sec

-------------------
DFT GRID GENERATION
-------------------

General Integration Accuracy     IntAcc      ...  4.340
Radial Grid Type                 RadialGrid  ... Gauss-Chebyshev
Angular Grid (max. acc.)         AngularGrid ... Lebedev-110
Angular grid pruning method      GridPruning ... 3 (G Style)
Weight generation scheme         WeightScheme... Becke
Basis function cutoff            BFCut       ...    1.0000e-12
Integration weight cutoff        WCut        ...    1.0000e-14
Grids for H and He will be reduced by one unit

# of grid points (after initial pruning)     ...  13770 (   0.0 sec)
# of grid points (after weights+screening)   ...  12860 (   0.0 sec)
nearest neighbour list constructed           ...    0.0 sec
Grid point re-assignment to atoms done       ...    0.0 sec
Grid point division into batches done        ...    0.0 sec
Reduced shell lists constructed in    0.1 sec

Total number of grid points                  ...    12860
Total number of batches                      ...      209
Average number of points per batch           ...       61
Average number of grid points per atom       ...      989
Average number of shells per batch           ...    37.29 (88.79%)
Average number of basis functions per batch  ...    66.54 (89.92%)
Average number of large shells per batch     ...    32.30 (86.63%)
Average number of large basis fcns per batch ...    57.35 (86.19%)
Maximum spatial batch extension              ...  20.91, 19.70, 20.54 au
Average spatial batch extension              ...   4.10,  4.08,  3.94 au

Time for grid setup =    0.987 sec

--------------
SCF ITERATIONS
--------------
ITER       Energy         Delta-E        Max-DP      RMS-DP      [F,P]     Damp
               ***  Starting incremental Fock matrix formation  ***
  0   -157.5233885669   0.000000000000 0.00251176  0.00017698  0.0196882 0.7000
  1   -157.5242963152  -0.000907748311 0.00198914  0.00016072  0.0155728 0.7000
                               ***Turning on DIIS***
  2   -157.5250054457  -0.000709130405 0.00514694  0.00041967  0.0116856 0.0000
  3   -157.5267997205  -0.001794274831 0.00349958  0.00009397  0.0015240 0.0000
  4   -157.5268255069  -0.000025786426 0.00232709  0.00007714  0.0006758 0.0000
  5   -157.5268304937  -0.000004986756 0.00042759  0.00001567  0.0003756 0.0000
  6   -157.5268310083  -0.000000514586 0.00031323  0.00000790  0.0001536 0.0000
  7   -157.5268311011  -0.000000092823 0.00004042  0.00000158  0.0000207 0.0000
  8   -157.5268311066  -0.000000005505 0.00001496  0.00000051  0.0000055 0.0000
  9   -157.5268311072  -0.000000000604 0.00000687  0.00000020  0.0000044 0.0000
 10   -157.5268311073  -0.000000000108 0.00000110  0.00000006  0.0000008 0.0000
 11   -157.5268311073  -0.000000000018 0.00000031  0.00000002  0.0000001 0.0000
                 **** Energy Check signals convergence ****

 Fermi smearing  (ALPHA): E(HOMO(Eh)) = -0.326358 MUE = -0.065565 gap=   6.754 eV
 Fermi smearing   (BETA): E(HOMO(Eh)) = -0.320489 MUE = -0.179688 gap=   7.634 eV

N_FOD(alpha) =  0.000000
 N_FOD(beta) =  0.000000
       N_FOD =  0.000000

               *****************************************************
               *                     SUCCESS                       *
               *           SCF CONVERGED AFTER  12 CYCLES          *
               *****************************************************

Setting up the final grid:

General Integration Accuracy     IntAcc      ...  4.670
Radial Grid Type                 RadialGrid  ... Gauss-Chebyshev
Angular Grid (max. acc.)         AngularGrid ... Lebedev-302
Angular grid pruning method      GridPruning ... 3 (G Style)
Weight generation scheme         WeightScheme... Becke
Basis function cutoff            BFCut       ...    1.0000e-12
Integration weight cutoff        WCut        ...    1.0000e-14
Grids for H and He will be reduced by one unit

# of grid points (after initial pruning)     ...  55394 (   0.0 sec)
# of grid points (after weights+screening)   ...  51323 (   0.1 sec)
nearest neighbour list constructed           ...    0.0 sec
Grid point re-assignment to atoms done       ...    0.0 sec
Grid point division into batches done        ...    0.2 sec
Reduced shell lists constructed in    0.3 sec

Total number of grid points                  ...    51323
Total number of batches                      ...      809
Average number of points per batch           ...       63
Average number of grid points per atom       ...     3948
Average number of shells per batch           ...    34.76 (82.77%)
Average number of basis functions per batch  ...    61.80 (83.51%)
Average number of large shells per batch     ...    29.30 (84.29%)
Average number of large basis fcns per batch ...    51.49 (83.33%)
Maximum spatial batch extension              ...  18.94, 18.84, 21.27 au
Average spatial batch extension              ...   2.62,  2.66,  2.61 au

Final grid set up in    1.1 sec
Final integration                            ... done (   4.1 sec)
Change in XC energy                          ...     0.000519761
Integrated number of electrons               ...    33.000108028
Previous integrated no of electrons          ...    33.004356887
Total Energy       :         -157.52631135 Eh           -4286.50885 eV
  Last Energy change         ...   -1.9895e-13  Tolerance :   1.0000e-09
  Last MAX-Density change    ...    1.4910e-07  Tolerance :   1.0000e-08
             **** THE GBW FILE WAS UPDATED (orca4.gbw) ****
             **** DENSITY FILE WAS UPDATED (orca4.scfp) ****
             **** ENERGY FILE WAS UPDATED (orca4.en.tmp) ****
             **** THE GBW FILE WAS UPDATED (orca4.gbw) ****
             **** DENSITY FILE WAS UPDATED (orca4.scfp) ****
Total SCF time: 0 days 0 hours 1 min 32 sec 


-------------------------------------------------------------------------------
                          DFT DISPERSION CORRECTION                            
                                                                               
                              DFTD3 V3.1  Rev 1                                
                          USING Becke-Johnson damping                          
-------------------------------------------------------------------------------
-------------------------   ----------------
Dispersion correction           -0.014096418
-------------------------   ----------------


-------------------------   --------------------
FINAL SINGLE POINT ENERGY      -157.540407764074
-------------------------   --------------------

------------------------------------------------------------------------------
                         ORCA SCF GRADIENT CALCULATION
------------------------------------------------------------------------------

Gradient of the Kohn-Sham DFT energy:
Kohn-Sham wavefunction type      ... UKS
Hartree-Fock exchange scaling    ...    0.200
Number of operators              ...    2
Number of atoms                  ...   13
Basis set dimensions             ...   74
Integral neglect threshold       ... 1.0e-12
Integral primitive cutoff        ... 1.0e-14

Nuclear repulsion gradient       ... done
One Electron Gradient            ... done
Pre-screening matrix             ... done
Starting the two electron gradient:
Two electron gradient done
Exchange-correlation gradient    ... done
Dispersion correction            ... done

------------------
CARTESIAN GRADIENT
------------------

   1   C   :    0.008727816   -0.015141580    0.037535217
   2   C   :    0.009635596    0.008171112   -0.012831844
   3   C   :   -0.017299047   -0.000361919   -0.015748190
   4   C   :    0.003046309    0.012685337   -0.009851293
   5   H   :    0.000450315   -0.002369534   -0.000652462
   6   H   :   -0.005149082   -0.001565970    0.000947997
   7   H   :   -0.006315394   -0.004452316   -0.000271496
   8   H   :    0.005121922    0.004985059    0.004375913
   9   H   :    0.005659226    0.005676675   -0.001745120
  10   H   :    0.000486258   -0.002042497   -0.001808327
  11   H   :   -0.000917077   -0.002894740    0.000213849
  12   H   :   -0.002961340   -0.000801761    0.001517514
  13   H   :   -0.000485502   -0.001887866   -0.001681757

Difference to translation invariance:
           :   -0.0000000000    0.0000000000   -0.0000000000

Norm of the cartesian gradient     ...    0.0558743992
RMS gradient                       ...    0.0089470644
MAX gradient                       ...    0.0375352169

-------
TIMINGS
-------

Total SCF gradient time            ...        4.197 sec

One electron gradient       ....       0.028 sec  (  0.7%)
Prescreening matrices       ....       0.028 sec  (  0.7%)
Two electron gradient       ....       1.343 sec  ( 32.0%)
XC gradient                 ....       2.647 sec  ( 63.1%)
------------------------------------------------------------------------------
                         ORCA GEOMETRY RELAXATION STEP
------------------------------------------------------------------------------

Reading the OPT-File                    .... done
Getting information on internals        .... done
Copying old internal coords+grads       .... done
Making the new internal coordinates     .... (new redundants).... done
Validating the new internal coordinates .... (new redundants).... done
Calculating the B-matrix                .... done
Calculating the G,G- and P matrices     .... done
Transforming gradient to internals      .... done
Projecting the internal gradient        .... done
Number of atoms                         ....  13
Number of internal coordinates          ....  51
Current Energy                          ....  -157.540407764 Eh
Current gradient norm                   ....     0.055874399 Eh/bohr
Maximum allowed component of the step   ....  0.300
Current trust radius                    ....  0.300
Updating the Hessian (BFGS)             .... done
Forming the augmented Hessian           .... done
Diagonalizing the augmented Hessian     .... done
Last element of RFO vector              ....  0.933841506
Lowest eigenvalues of augmented Hessian:
 -0.010094647  0.010853700  0.012648390  0.013088949  0.053782275
Length of the computed step             ....  0.383027601
Warning: the length of the step is outside the trust region - taking restricted step instead
The input lambda is                     ....    -0.010095
   iter:   1  x=   -0.021609  g=    4.925263 f(x)=     0.056710
   iter:   2  x=   -0.026441  g=    2.825140 f(x)=     0.013653
   iter:   3  x=   -0.027006  g=    2.309369 f(x)=     0.001304
   iter:   4  x=   -0.027012  g=    2.257801 f(x)=     0.000015
   iter:   5  x=   -0.027012  g=    2.257218 f(x)=     0.000000
   iter:   6  x=   -0.027012  g=    2.257218 f(x)=     0.000000
The output lambda is                    ....    -0.027012 (6 iterations)
The final length of the internal step   ....  0.300000000
Converting the step to cartesian space:
 Initial RMS(Int)=    0.0420084025
Transforming coordinates:
 Iter   0:  RMS(Cart)=    0.0579868285 RMS(Int)=    0.8712150671
 Iter   1:  RMS(Cart)=    0.0032688461 RMS(Int)=    0.0020519766
 Iter   2:  RMS(Cart)=    0.0001234753 RMS(Int)=    0.0000788540
 Iter   3:  RMS(Cart)=    0.0000062541 RMS(Int)=    0.0000055478
 Iter   4:  RMS(Cart)=    0.0000003544 RMS(Int)=    0.0000002973
 Iter   5:  RMS(Cart)=    0.0000000243 RMS(Int)=    0.0000000211
done
Storing new coordinates                 .... done

                                .--------------------.
          ----------------------|Geometry convergence|-------------------------
          Item                value                   Tolerance       Converged
          ---------------------------------------------------------------------
          Energy change      -0.0117923810            0.0000050000      NO
          RMS gradient        0.0043234442            0.0001000000      NO
          MAX gradient        0.0099802123            0.0003000000      NO
          RMS step            0.0420084025            0.0020000000      NO
          MAX step            0.0910903185            0.0040000000      NO
          ........................................................
          Max(Bonds)      0.0137      Max(Angles)    3.65
          Max(Dihed)        5.22      Max(Improp)    0.00
          ---------------------------------------------------------------------

The optimization has not yet converged - more geometry cycles are needed


    ---------------------------------------------------------------------------
                         Redundant Internal Coordinates
                            (Angstroem and degrees)

        Definition                    Value    dE/dq     Step     New-Value
    ----------------------------------------------------------------------------
     1. B(C   1,C   0)                1.5181  0.000805 -0.0017    1.5164   
     2. B(C   2,C   0)                1.5428  0.006418 -0.0137    1.5291   
     3. B(C   3,C   0)                1.5170 -0.000213  0.0003    1.5173   
     4. B(H   4,C   1)                1.1026 -0.000460  0.0009    1.1035   
     5. B(H   5,C   1)                1.1136  0.000243 -0.0004    1.1133   
     6. B(H   6,C   1)                1.1106  0.002005 -0.0045    1.1061   
     7. B(H   7,C   2)                1.1073 -0.000710  0.0014    1.1087   
     8. B(H   8,C   2)                1.1016 -0.002013  0.0045    1.1061   
     9. B(H   9,C   2)                1.1027 -0.001448  0.0031    1.1059   
    10. B(H  10,C   3)                1.1131  0.001449 -0.0032    1.1098   
    11. B(H  11,C   3)                1.1089  0.000691 -0.0012    1.1077   
    12. B(H  12,C   3)                1.1041 -0.000618  0.0013    1.1054   
    13. A(C   1,C   0,C   3)          114.23  0.000616    1.47    115.70   
    14. A(C   2,C   0,C   3)          115.35 -0.001269    1.90    117.24   
    15. A(C   1,C   0,C   2)          110.69 -0.006873    3.65    114.34   
    16. A(H   4,C   1,H   5)          110.05  0.003843   -1.43    108.62   
    17. A(H   5,C   1,H   6)          104.70  0.000124    0.88    105.58   
    18. A(H   4,C   1,H   6)          111.35  0.006328   -1.93    109.41   
    19. A(C   0,C   1,H   4)          113.68  0.000754   -0.45    113.23   
    20. A(C   0,C   1,H   5)          108.17 -0.002690    0.80    108.97   
    21. A(C   0,C   1,H   6)          108.47 -0.008748    2.43    110.90   
    22. A(H   7,C   2,H   9)          107.58  0.002707   -0.65    106.94   
    23. A(C   0,C   2,H   9)          112.14  0.003895   -0.83    111.31   
    24. A(H   7,C   2,H   8)          111.73  0.009980   -2.98    108.75   
    25. A(C   0,C   2,H   8)          108.67 -0.007647    1.96    110.63   
    26. A(H   8,C   2,H   9)          107.57  0.000427    0.23    107.81   
    27. A(C   0,C   2,H   7)          109.17 -0.008785    2.16    111.33   
    28. A(H  11,C   3,H  12)          108.12  0.000648   -0.10    108.02   
    29. A(H  10,C   3,H  12)          107.59  0.000278   -0.57    107.02   
    30. A(C   0,C   3,H  12)          113.59  0.004301   -1.32    112.27   
    31. A(H  10,C   3,H  11)          104.46 -0.000350    0.70    105.16   
    32. A(C   0,C   3,H  11)          109.60 -0.005657    1.68    111.29   
    33. A(C   0,C   3,H  10)          112.98  0.000480   -0.19    112.79   
    34. D(H   6,C   1,C   0,C   2)     57.60  0.001805   -2.72     54.88   
    35. D(H   4,C   1,C   0,C   2)   -177.96  0.003909   -3.68   -181.64   
    36. D(H   6,C   1,C   0,C   3)   -170.19 -0.005976    3.90   -166.29   
    37. D(H   5,C   1,C   0,C   2)    -55.42  0.007372   -5.22    -60.64   
    38. D(H   4,C   1,C   0,C   3)    -45.75 -0.003872    2.94    -42.81   
    39. D(H   5,C   1,C   0,C   3)     76.79 -0.000408    1.40     78.19   
    40. D(H   7,C   2,C   0,C   1)   -119.52 -0.002409    2.42   -117.10   
    41. D(H   9,C   2,C   0,C   3)   -132.03  0.004558   -3.83   -135.87   
    42. D(H   9,C   2,C   0,C   1)     -0.40 -0.002392    2.54      2.14   
    43. D(H   8,C   2,C   0,C   3)    -13.25  0.002490   -2.77    -16.01   
    44. D(H   8,C   2,C   0,C   1)    118.39 -0.004460    3.61    121.99   
    45. D(H   7,C   2,C   0,C   3)    108.84  0.004542   -3.95    104.89   
    46. D(H  11,C   3,C   0,C   1)   -121.35  0.003949   -3.01   -124.36   
    47. D(H  10,C   3,C   0,C   2)   -107.44 -0.003063    3.06   -104.38   
    48. D(H  10,C   3,C   0,C   1)    122.62  0.007748   -4.81    117.81   
    49. D(H  12,C   3,C   0,C   2)    129.64 -0.007208    5.08    134.73   
    50. D(H  12,C   3,C   0,C   1)     -0.29  0.003604   -2.78     -3.08   
    51. D(H  11,C   3,C   0,C   2)      8.59 -0.006863    4.86     13.45   
    ----------------------------------------------------------------------------

         *************************************************************
         *                GEOMETRY OPTIMIZATION CYCLE   3            *
         *************************************************************
---------------------------------
CARTESIAN COORDINATES (ANGSTROEM)
---------------------------------
  C      0.037101   -0.058127    0.358400
  C      0.217757    1.445534    0.281624
  C     -1.396818   -0.525662    0.106524
  C      1.144842   -0.874211   -0.281241
  H      1.250366    1.771355    0.494486
  H     -0.060508    1.790853   -0.739505
  H     -0.479571    1.961600    0.967823
  H     -1.820438   -1.025844    1.000750
  H     -1.432457   -1.231163   -0.744646
[...]

             **** THE GBW FILE WAS UPDATED (orca4.gbw) ****
             **** DENSITY FILE WAS UPDATED (orca4.scfp) ****
             **** ENERGY FILE WAS UPDATED (orca4.en.tmp) ****
             **** THE GBW FILE WAS UPDATED (orca4.gbw) ****
             **** DENSITY FILE WAS UPDATED (orca4.scfp) ****
----------------
ORBITAL ENERGIES
----------------
                 SPIN UP ORBITALS
  NO   OCC          E(Eh)            E(eV) 
   0   1.0000     -10.183257      -277.1005 
   1   1.0000     -10.169304      -276.7208 
   2   1.0000     -10.169042      -276.7137 
   3   1.0000     -10.168824      -276.7078 
   4   1.0000      -0.789196       -21.4751 
   5   1.0000      -0.677157       -18.4264 
   6   1.0000      -0.677072       -18.4241 
   7   1.0000      -0.526067       -14.3150 
   8   1.0000      -0.439675       -11.9642 
   9   1.0000      -0.435183       -11.8419 
  10   1.0000      -0.435150       -11.8410 
  11   1.0000      -0.381307       -10.3759 
  12   1.0000      -0.381240       -10.3741 
  13   1.0000      -0.362784        -9.8719 
  14   1.0000      -0.342111        -9.3093 
  15   1.0000      -0.342020        -9.3068 
  16   1.0000      -0.170650        -4.6436 
  17   0.0000       0.054396         1.4802 
  18   0.0000       0.104978         2.8566 
  19   0.0000       0.105552         2.8722 
  20   0.0000       0.121062         3.2943 
  21   0.0000       0.121279         3.3002 
  22   0.0000       0.132443         3.6039 
  23   0.0000       0.156560         4.2602 
  24   0.0000       0.156817         4.2672 
  25   0.0000       0.191170         5.2020 
  26   0.0000       0.206388         5.6161 
  27   0.0000       0.277995         7.5646 
  28   0.0000       0.279916         7.6169 
  29   0.0000       0.401095        10.9143 
  30   0.0000       0.401608        10.9283 
  31   0.0000       0.438938        11.9441 
  32   0.0000       0.473298        12.8791 
  33   0.0000       0.474057        12.8997 
  34   0.0000       0.476219        12.9586 
  35   0.0000       0.613310        16.6890 
  36   0.0000       0.621507        16.9121 
  37   0.0000       0.623268        16.9600 
  38   0.0000       0.639559        17.4033 
  39   0.0000       0.647311        17.6142 
  40   0.0000       0.663962        18.0673 
  41   0.0000       0.682195        18.5635 
  42   0.0000       0.682409        18.5693 
  43   0.0000       0.705767        19.2049 
  44   0.0000       0.706092        19.2137 
  45   0.0000       0.706385        19.2217 
  46   0.0000       0.731850        19.9147 
  47   0.0000       0.732197        19.9241 
  48   0.0000       0.764179        20.7944 
  49   0.0000       0.787771        21.4363 
  50   0.0000       0.788008        21.4428 
  51   0.0000       0.842964        22.9382 
  52   0.0000       1.014528        27.6067 
  53   0.0000       1.015897        27.6440 
  54   0.0000       1.430161        38.9167 
  55   0.0000       1.430378        38.9226 
  56   0.0000       1.724422        46.9239 
  57   0.0000       1.772833        48.2412 
  58   0.0000       1.772906        48.2432 
  59   0.0000       1.777250        48.3614 
  60   0.0000       1.979857        53.8747 
  61   0.0000       1.979967        53.8776 
  62   0.0000       1.980536        53.8931 
  63   0.0000       2.041899        55.5629 
  64   0.0000       2.042301        55.5738 
  65   0.0000       2.133007        58.0421 
  66   0.0000       2.155648        58.6582 
  67   0.0000       2.175870        59.2084 
  68   0.0000       2.176421        59.2234 
  69   0.0000       2.417228        65.7761 
  70   0.0000       2.417460        65.7824 
  71   0.0000       2.482836        67.5614 
  72   0.0000       2.732597        74.3577 
  73   0.0000       2.732964        74.3677 

                 SPIN DOWN ORBITALS
  NO   OCC          E(Eh)            E(eV) 
   0   1.0000     -10.170298      -276.7479 
   1   1.0000     -10.170039      -276.7408 
   2   1.0000     -10.169822      -276.7349 
   3   1.0000     -10.168972      -276.7118 
   4   1.0000      -0.772225       -21.0133 
   5   1.0000      -0.674788       -18.3619 
   6   1.0000      -0.674709       -18.3598 
   7   1.0000      -0.508047       -13.8247 
   8   1.0000      -0.431171       -11.7328 
   9   1.0000      -0.431124       -11.7315 
  10   1.0000      -0.419815       -11.4238 
  11   1.0000      -0.375335       -10.2134 
  12   1.0000      -0.375248       -10.2110 
  13   1.0000      -0.361675        -9.8417 
  14   1.0000      -0.337286        -9.1780 
  15   1.0000      -0.337195        -9.1755 
  16   0.0000      -0.030412        -0.8276 
  17   0.0000       0.055566         1.5120 
  18   0.0000       0.105982         2.8839 
  19   0.0000       0.106589         2.9004 
  20   0.0000       0.122550         3.3348 
  21   0.0000       0.122750         3.3402 
  22   0.0000       0.141141         3.8407 
  23   0.0000       0.159664         4.3447 
  24   0.0000       0.159912         4.3514 
  25   0.0000       0.191314         5.2059 
  26   0.0000       0.224446         6.1075 
  27   0.0000       0.284219         7.7340 
  28   0.0000       0.286160         7.7868 
  29   0.0000       0.403064        10.9679 
  30   0.0000       0.403595        10.9824 
  31   0.0000       0.460667        12.5354 
  32   0.0000       0.480127        13.0649 
  33   0.0000       0.480863        13.0850 
  34   0.0000       0.493099        13.4179 
  35   0.0000       0.622963        16.9517 
  36   0.0000       0.624711        16.9993 
  37   0.0000       0.648650        17.6507 
  38   0.0000       0.649182        17.6651 
  39   0.0000       0.658088        17.9075 
  40   0.0000       0.672998        18.3132 
  41   0.0000       0.687058        18.6958 
  42   0.0000       0.687342        18.7035 
  43   0.0000       0.708018        19.2662 
  44   0.0000       0.708465        19.2783 
  45   0.0000       0.716018        19.4838 
  46   0.0000       0.735235        20.0068 
  47   0.0000       0.735592        20.0165 
  48   0.0000       0.763886        20.7864 
  49   0.0000       0.791971        21.5506 
  50   0.0000       0.792204        21.5570 
  51   0.0000       0.852219        23.1901 
  52   0.0000       1.017547        27.6889 
  53   0.0000       1.018947        27.7270 
  54   0.0000       1.452357        39.5207 
  55   0.0000       1.452625        39.5279 
  56   0.0000       1.722064        46.8597 
  57   0.0000       1.776344        48.3368 
  58   0.0000       1.776466        48.3401 
  59   0.0000       1.806197        49.1491 
  60   0.0000       1.983808        53.9822 
  61   0.0000       1.984197        53.9927 
  62   0.0000       2.004679        54.5501 
  63   0.0000       2.050889        55.8075 
  64   0.0000       2.051288        55.8184 
  65   0.0000       2.135167        58.1009 
  66   0.0000       2.154783        58.6346 
  67   0.0000       2.179657        59.3115 
  68   0.0000       2.180208        59.3265 
  69   0.0000       2.439715        66.3880 
  70   0.0000       2.439924        66.3937 
  71   0.0000       2.510994        68.3276 
  72   0.0000       2.740153        74.5634 
  73   0.0000       2.740499        74.5728 

                    ********************************
                    * MULLIKEN POPULATION ANALYSIS *
                    ********************************

------------------------------------------
FOD BASED MULLIKEN REDUCED ORBITAL CHARGES
------------------------------------------
  0 C s       :     0.000000  s :     0.000000
      pz      :     0.000000  p :     0.000000
      px      :     0.000000
      py      :     0.000000
      dz2     :     0.000000  d :     0.000000
      dxz     :     0.000000
      dyz     :     0.000000
      dx2y2   :     0.000000
      dxy     :     0.000000
  1 C s       :    -0.000000  s :    -0.000000
      pz      :     0.000000  p :     0.000000
      px      :     0.000000
      py      :     0.000000
      dz2     :     0.000000  d :     0.000000
      dxz     :     0.000000
      dyz     :     0.000000
      dx2y2   :     0.000000
      dxy     :     0.000000
  2 C s       :    -0.000000  s :    -0.000000
      pz      :     0.000000  p :     0.000000
      px      :     0.000000
      py      :     0.000000
      dz2     :     0.000000  d :     0.000000
      dxz     :     0.000000
      dyz     :     0.000000
      dx2y2   :     0.000000
      dxy     :     0.000000
  3 C s       :    -0.000000  s :    -0.000000
      pz      :     0.000000  p :     0.000000
      px      :     0.000000
      py      :     0.000000
      dz2     :     0.000000  d :     0.000000
      dxz     :     0.000000
      dyz     :     0.000000
      dx2y2   :     0.000000
      dxy     :     0.000000
  4 H s       :     0.000000  s :     0.000000
  5 H s       :     0.000000  s :     0.000000
  6 H s       :     0.000000  s :     0.000000
  7 H s       :     0.000000  s :     0.000000
  8 H s       :     0.000000  s :     0.000000
  9 H s       :     0.000000  s :     0.000000
 10 H s       :     0.000000  s :     0.000000
 11 H s       :     0.000000  s :     0.000000
 12 H s       :     0.000000  s :     0.000000


                     *******************************
                     * LOEWDIN POPULATION ANALYSIS *
                     *******************************

-------------------------------------------
LOEWDIN ATOMIC CHARGES AND SPIN POPULATIONS
-------------------------------------------
   0 C :   -0.080154    0.820362
   1 C :   -0.313820   -0.023122
   2 C :   -0.312858   -0.023178
   3 C :   -0.312302   -0.023105
   4 H :    0.113528    0.012053
   5 H :    0.114005    0.012252
   6 H :    0.112825    0.058362
   7 H :    0.112209    0.058814
   8 H :    0.113584    0.012093
   9 H :    0.113747    0.012235
  10 H :    0.112136    0.058908
  11 H :    0.113612    0.011969
  12 H :    0.113486    0.012360

----------------------------------------------------
LOEWDIN REDUCED ORBITAL CHARGES AND SPIN POPULATIONS
----------------------------------------------------
CHARGE
  0 C s       :     2.904706  s :     2.904706
      pz      :     0.990859  p :     3.083011
      px      :     1.047229
      py      :     1.044923
      dz2     :     0.008258  d :     0.092437
      dxz     :     0.008977
      dyz     :     0.011456
      dx2y2   :     0.030385
      dxy     :     0.033362
  1 C s       :     2.947146  s :     2.947146
      pz      :     1.103432  p :     3.288784
      px      :     1.107803
      py      :     1.077549
      dz2     :     0.024236  d :     0.077890
      dxz     :     0.006540
      dyz     :     0.012575
      dx2y2   :     0.013967
      dxy     :     0.020572
  2 C s       :     2.946996  s :     2.946996
      pz      :     1.106249  p :     3.287876
      px      :     1.078066
      py      :     1.103561
      dz2     :     0.015709  d :     0.077986
      dxz     :     0.012883
      dyz     :     0.016101
      dx2y2   :     0.013645
      dxy     :     0.019648
  3 C s       :     2.947018  s :     2.947018
      pz      :     1.106440  p :     3.287253
      px      :     1.087311
      py      :     1.093502
      dz2     :     0.013156  d :     0.078031
      dxz     :     0.012195
      dyz     :     0.020014
      dx2y2   :     0.013861
      dxy     :     0.018805
  4 H s       :     0.886472  s :     0.886472
  5 H s       :     0.885995  s :     0.885995
  6 H s       :     0.887175  s :     0.887175
  7 H s       :     0.887791  s :     0.887791
  8 H s       :     0.886416  s :     0.886416
  9 H s       :     0.886253  s :     0.886253
 10 H s       :     0.887864  s :     0.887864
 11 H s       :     0.886388  s :     0.886388
 12 H s       :     0.886514  s :     0.886514

SPIN
  0 C s       :     0.041926  s :     0.041926
      pz      :     0.721467  p :     0.781506
      px      :     0.016680
      py      :     0.043359
      dz2     :    -0.001145  d :    -0.003071
      dxz     :    -0.000055
      dyz     :    -0.000406
      dx2y2   :    -0.000602
      dxy     :    -0.000861
  1 C s       :    -0.005735  s :    -0.005735
      pz      :    -0.014744  p :    -0.034197
      px      :    -0.004003
      py      :    -0.015450
      dz2     :     0.007954  d :     0.016810
      dxz     :     0.000479
      dyz     :     0.007293
      dx2y2   :     0.000714
      dxy     :     0.000371
  2 C s       :    -0.005734  s :    -0.005734
      pz      :    -0.013599  p :    -0.034290
      px      :    -0.014911
      py      :    -0.005780
      dz2     :     0.002190  d :     0.016845
      dxz     :     0.009760
      dyz     :     0.003230
      dx2y2   :     0.000520
      dxy     :     0.001145
  3 C s       :    -0.005725  s :    -0.005725
      pz      :    -0.013496  p :    -0.034249
      px      :    -0.011355
      py      :    -0.009398
      dz2     :     0.001143  d :     0.016869
      dxz     :     0.006931
      dyz     :     0.006919
      dx2y2   :     0.000409
      dxy     :     0.001467
  4 H s       :     0.012053  s :     0.012053
  5 H s       :     0.012252  s :     0.012252
  6 H s       :     0.058362  s :     0.058362
  7 H s       :     0.058814  s :     0.058814
  8 H s       :     0.012093  s :     0.012093
  9 H s       :     0.012235  s :     0.012235
 10 H s       :     0.058908  s :     0.058908
 11 H s       :     0.011969  s :     0.011969
 12 H s       :     0.012360  s :     0.012360


                      *****************************
                      * MAYER POPULATION ANALYSIS *
                      *****************************

  NA   - Mulliken gross atomic population
  ZA   - Total nuclear charge
  QA   - Mulliken gross atomic charge
  VA   - Mayer's total valence
  BVA  - Mayer's bonded valence
  FA   - Mayer's free valence

  ATOM       NA         ZA         QA         VA         BVA        FA
  0 C      6.1538     6.0000    -0.1538     4.2094     3.5184     0.6909
  1 C      6.2252     6.0000    -0.2252     3.9371     3.9336     0.0035
  2 C      6.2209     6.0000    -0.2209     3.9391     3.9356     0.0035
  3 C      6.2188     6.0000    -0.2188     3.9397     3.9362     0.0035
  4 H      0.9098     1.0000     0.0902     0.9593     0.9591     0.0002
  5 H      0.9075     1.0000     0.0925     0.9589     0.9587     0.0002
  6 H      0.9071     1.0000     0.0929     0.9489     0.9439     0.0050
  7 H      0.9101     1.0000     0.0899     0.9490     0.9439     0.0050
  8 H      0.9090     1.0000     0.0910     0.9594     0.9592     0.0002
  9 H      0.9085     1.0000     0.0915     0.9589     0.9588     0.0002
 10 H      0.9107     1.0000     0.0893     0.9491     0.9440     0.0051
 11 H      0.9088     1.0000     0.0912     0.9591     0.9589     0.0002
 12 H      0.9098     1.0000     0.0902     0.9589     0.9587     0.0002

  Mayer bond orders larger than 0.100000
B(  0-C ,  1-C ) :   1.1208 B(  0-C ,  2-C ) :   1.1239 B(  0-C ,  3-C ) :   1.1233 
B(  1-C ,  4-H ) :   0.9510 B(  1-C ,  5-H ) :   0.9504 B(  1-C ,  6-H ) :   0.9293 
B(  2-C ,  7-H ) :   0.9294 B(  2-C ,  8-H ) :   0.9503 B(  2-C ,  9-H ) :   0.9501 
B(  3-C , 10-H ) :   0.9294 B(  3-C , 11-H ) :   0.9507 B(  3-C , 12-H ) :   0.9507 


-------
TIMINGS
-------

Total SCF time: 0 days 0 hours 2 min 51 sec 

Total time                  ....     171.899 sec
Sum of individual times     ....     143.939 sec  ( 83.7%)

Fock matrix formation       ....     116.936 sec  ( 68.0%)
  XC integration            ....      56.243 sec  ( 48.1% of F)
    Basis function eval.    ....       0.635 sec  (  1.1% of XC)
    Density eval.           ....       0.410 sec  (  0.7% of XC)
    XC-Functional eval.     ....       0.270 sec  (  0.5% of XC)
    XC-Potential eval.      ....       0.565 sec  (  1.0% of XC)
Diagonalization             ....       1.327 sec  (  0.8%)
Density matrix formation    ....      11.382 sec  (  6.6%)
Population analysis         ....       8.783 sec  (  5.1%)
Initial guess               ....       0.003 sec  (  0.0%)
Orbital Transformation      ....       0.000 sec  (  0.0%)
Orbital Orthonormalization  ....       0.001 sec  (  0.0%)
DIIS solution               ....       3.696 sec  (  2.2%)
Grid generation             ....       1.812 sec  (  1.1%)


-------------------------------------------------------------------------------
                          DFT DISPERSION CORRECTION                            
                                                                               
                              DFTD3 V3.1  Rev 1                                
                          USING Becke-Johnson damping                          
-------------------------------------------------------------------------------
The B3LYP functional is recognized
Active option DFTDOPT                   ...         4   

molecular C6(AA) [au] = 1133.310970 


            DFT-D V3
 parameters
 s6 scaling factor         :     1.0000 
 a1 scaling factor         :     0.3981 
 s8 scaling factor         :     1.9889 
 a2 scaling factor         :     4.4211 
 ad hoc parameters k1-k3   :    16.0000     1.3333    -4.0000 

 Edisp/kcal,au: -8.704678268335  -0.013871786323 
 E6   /kcal   :  -4.310498285 
 E8   /kcal   :  -4.394179983 
 % E8         :  50.480670823 

-------------------------   ----------------
Dispersion correction           -0.013871786
-------------------------   ----------------


-------------------------   --------------------
FINAL SINGLE POINT ENERGY      -157.556993506807
-------------------------   --------------------

                                *** OPTIMIZATION RUN DONE ***

                            ***************************************
                            *     ORCA property calculations      *
                            ***************************************

                                    ---------------------
                                    Active property flags
                                    ---------------------
   (+) Dipole Moment


------------------------------------------------------------------------------
                       ORCA ELECTRIC PROPERTIES CALCULATION
------------------------------------------------------------------------------

Dipole Moment Calculation                       ... on
Quadrupole Moment Calculation                   ... off
Polarizability Calculation                      ... off
GBWName                                         ... orca4.gbw
Electron density file                           ... orca4.scfp
The origin for moment calculation is the CENTER OF MASS  = (-0.041414,  0.055343 -0.104845)

-------------
DIPOLE MOMENT
-------------
                                X             Y             Z
Electronic contribution:     -0.00915       0.11204      -0.59882
Nuclear contribution   :      0.01199      -0.13099       0.68687
                        -----------------------------------------
Total Dipole Moment    :      0.00284      -0.01895       0.08804
                        -----------------------------------------
Magnitude (a.u.)       :      0.09011
Magnitude (Debye)      :      0.22903



--------------------
Rotational spectrum 
--------------------
 
Rotational constants in cm-1:     0.264939     0.264717     0.143772 
Rotational constants in MHz :  7942.661725  7936.005837  4310.163863 

 Dipole components along the rotational axes: 
x,y,z [a.u.] :     0.002007    -0.001111     0.090076 
x,y,z [Debye]:     0.005102    -0.002824     0.228955 

 

Timings for individual modules:

Sum of individual times         ...     8014.686 sec (= 133.578 min)
GTO integral calculation        ...      175.780 sec (=   2.930 min)   2.2 %
SCF iterations                  ...     7589.162 sec (= 126.486 min)  94.7 %
SCF Gradient evaluation         ...      156.482 sec (=   2.608 min)   2.0 %
Geometry relaxation             ...       93.262 sec (=   1.554 min)   1.2 %
                             ****ORCA TERMINATED NORMALLY****
TOTAL RUN TIME: 0 days 2 hours 18 minutes 50 seconds 21 msec
