
                                 *****************
                                 * O   R   C   A *
                                 *****************

           --- An Ab Initio, DFT and Semiempirical electronic structure package ---

                  #######################################################
                  #                        -***-                        #
                  #          Department of theory and spectroscopy      #
                  #               Directorship: Frank Neese             #
                  #        Max Planck Institute fuer Kohlenforschung    #
                  #                Kaiser Wilhelm Platz 1               #
                  #                 D-45470 Muelheim/Ruhr               #
                  #                      Germany                        #
                  #                                                     #
                  #                  All rights reserved                #
                  #                        -***-                        #
                  #######################################################


                         Program Version 4.2.1 -  RELEASE  -


 With contributions from (in alphabetic order):
   Daniel Aravena         : Magnetic Suceptibility
   Michael Atanasov       : Ab Initio Ligand Field Theory (pilot matlab implementation)
   Alexander A. Auer      : GIAO ZORA, VPT2
   Ute Becker             : Parallelization
   Giovanni Bistoni       : ED, misc. LED, open-shell LED, HFLD
   Martin Brehm           : Molecular dynamics
   Dmytro Bykov           : SCF Hessian
   Vijay G. Chilkuri      : MRCI spin determinant printing, contributions to CSF-ICE
   Dipayan Datta          : RHF DLPNO-CCSD density
   Achintya Kumar Dutta   : EOM-CC, STEOM-CC
   Dmitry Ganyushin       : Spin-Orbit,Spin-Spin,Magnetic field MRCI
   Miquel Garcia          : C-PCM Hessian, Gaussian charge scheme
   Yang Guo               : DLPNO-NEVPT2, CIM, IAO-localization
   Andreas Hansen         : Spin unrestricted coupled pair/coupled cluster methods
   Benjamin Helmich-Paris : CASSCF linear response (MC-RPA)
   Lee Huntington         : MR-EOM, pCC
   Robert Izsak           : Overlap fitted RIJCOSX, COSX-SCS-MP3, EOM
   Christian Kollmar      : KDIIS, OOCD, Brueckner-CCSD(T), CCSD density
   Simone Kossmann        : Meta GGA functionals, TD-DFT gradient, OOMP2, MP2 Hessian
   Martin Krupicka        : AUTO-CI
   Lucas Lang             : DCDCAS
   Dagmar Lenk            : GEPOL surface, SMD
   Dimitrios Liakos       : Extrapolation schemes; Compound Job, initial MDCI parallelization
   Dimitrios Manganas     : Further ROCIS development; embedding schemes
   Dimitrios Pantazis     : SARC Basis sets
   Taras Petrenko         : DFT Hessian,TD-DFT gradient, ASA, ECA, R-Raman, ABS, FL, XAS/XES, NRVS
   Peter Pinski           : DLPNO-MP2, DLPNO-MP2 Gradient
   Christoph Reimann      : Effective Core Potentials
   Marius Retegan         : Local ZFS, SOC
   Christoph Riplinger    : Optimizer, TS searches, QM/MM, DLPNO-CCSD(T), (RO)-DLPNO pert. Triples
   Tobias Risthaus        : Range-separated hybrids, TD-DFT gradient, RPA, STAB
   Michael Roemelt        : Original ROCIS implementation
   Masaaki Saitow         : Open-shell DLPNO-CCSD energy and density
   Barbara Sandhoefer     : DKH picture change effects
   Avijit Sen             : IP-ROCIS
   Kantharuban Sivalingam : CASSCF convergence, NEVPT2, FIC-MRCI
   Bernardo de Souza      : ESD, SOC TD-DFT
   Georgi Stoychev        : AutoAux, RI-MP2 NMR
   Willem Van den Heuvel  : Paramagnetic NMR
   Boris Wezisla          : Elementary symmetry handling
   Frank Wennmohs         : Technical directorship


 We gratefully acknowledge several colleagues who have allowed us to
 interface, adapt or use parts of their codes:
   Stefan Grimme, W. Hujo, H. Kruse,             : VdW corrections, initial TS optimization,
                  C. Bannwarth                     DFT functionals, gCP, sTDA/sTD-DF
   Ed Valeev, F. Pavosevic, A. Kumar             : LibInt (2-el integral package), F12 methods
   Garnet Chan, S. Sharma, J. Yang, R. Olivares  : DMRG
   Ulf Ekstrom                                   : XCFun DFT Library
   Mihaly Kallay                                 : mrcc  (arbitrary order and MRCC methods)
   Andreas Klamt, Michael Diedenhofen            : otool_cosmo (COSMO solvation model)
   Jiri Pittner, Ondrej Demel                    : Mk-CCSD
   Frank Weinhold                                : gennbo (NPA and NBO analysis)
   Christopher J. Cramer and Donald G. Truhlar   : smd solvation model
   Lars Goerigk                                  : TD-DFT with DH, B97 family of functionals
   V. Asgeirsson, H. Jonsson                     : NEB implementation
   FAccTs GmbH                                   : IRC, NEB, NEB-TS, Multilevel, MM, QM/MM, CI optimization
   S Lehtola, MJT Oliveira, MAL Marques          : LibXC Library


 Your calculation uses the libint2 library for the computation of 2-el integrals
 For citations please refer to: http://libint.valeyev.net

 Your ORCA version has been built with support for libXC version: 4.2.3
 For citations please refer to: https://tddft.org/programs/libxc/

 This ORCA versions uses:
   CBLAS   interface :  Fast vector & matrix operations
   LAPACKE interface :  Fast linear algebra routines
   SCALAPACK package :  Parallel linear algebra routines


Your calculation utilizes the atom-pairwise dispersion correction
with the Becke-Johnson damping scheme (D3BJ)
Cite in your paper:
S.Grimme, S.Ehrlich, L.Goerigk, J Comput Chem, (2011), 32, 1456–1465 
S.Grimme, J.Antony, S.Ehrlich and H.Krieg, J.Chem.Phys., 132, (2010), 154104 
   

----- Orbital basis set information -----
Your calculation utilizes the basis: def2-SV(P)
   F. Weigend and R. Ahlrichs, Phys. Chem. Chem. Phys. 7, 3297 (2005).

----- AuxJ basis set information -----
Your calculation utilizes the auxiliary basis: def2/J
   F. Weigend, Phys. Chem. Chem. Phys. 8, 1057 (2006).

================================================================================
                                        WARNINGS
                       Please study these warnings very carefully!
================================================================================


WARNING: Geometry Optimization
  ===> : Switching off AutoStart
         For restart on a previous wavefunction, please use MOREAD

INFO   : the flag for use of LIBINT has been found!

================================================================================
                                       INPUT FILE
================================================================================
NAME = orca1.inp
|  1> ! UKS B3LYP def2-SV(P) def2/J D3BJ Opt
|  2> %scf Convergence VeryTight
|  3> SmearTemp 2000
|  4> maxiter 500
|  5> end
|  6> *xyz 0 2
|  7> C -0.058653 0.008836 0.382777
|  8> C 1.433147 0.008372 0.17417
|  9> C -0.698141 -1.228168 -0.179633
| 10> C -0.72701 1.227936 -0.231001
| 11> H 1.721143 0.922911 -0.371975
| 12> H 1.737048 -0.891871 -0.395083
| 13> H 2.007738 -0.011055 1.1152
| 14> H -1.438439 -1.031604 -0.969732
| 15> H -1.230175 -1.724483 0.642428
| 16> H 0.105594 -1.861341 -0.634424
| 17> H -1.765417 1.211095 0.135288
| 18> H -0.15263 2.100541 0.173099
| 19> H -0.705799 1.158443 -1.324284
| 20> *
| 21> 
| 22>                          ****END OF INPUT****
================================================================================

                       *****************************
                       * Geometry Optimization Run *
                       *****************************

Geometry optimization settings:
Update method            Update   .... BFGS
Choice of coordinates    CoordSys .... Z-matrix Internals
Initial Hessian          InHess   .... Almoef's Model

Convergence Tolerances:
Energy Change            TolE     ....  5.0000e-06 Eh
Max. Gradient            TolMAXG  ....  3.0000e-04 Eh/bohr
RMS Gradient             TolRMSG  ....  1.0000e-04 Eh/bohr
Max. Displacement        TolMAXD  ....  4.0000e-03 bohr
RMS Displacement         TolRMSD  ....  2.0000e-03 bohr
Strict Convergence                ....  False
------------------------------------------------------------------------------
                        ORCA OPTIMIZATION COORDINATE SETUP
------------------------------------------------------------------------------

The optimization will be done in new redundant internal coordinates
Making redundant internal coordinates   ...  (new redundants) done
Evaluating the initial hessian          ...  (Almloef) done
Evaluating the coordinates              ...  done
Calculating the B-matrix                .... done
Calculating the G-matrix                .... done
Diagonalizing the G-matrix              .... done
The first mode is                       ....   18
The number of degrees of freedom        ....   33

    -----------------------------------------------------------------
                    Redundant Internal Coordinates


    -----------------------------------------------------------------
         Definition                    Initial Value    Approx d2E/dq
    -----------------------------------------------------------------
      1. B(C   1,C   0)                  1.5063         0.407536   
      2. B(C   2,C   0)                  1.5018         0.414338   
      3. B(C   3,C   0)                  1.5197         0.387915   
      4. B(H   4,C   1)                  1.1034         0.342742   
      5. B(H   5,C   1)                  1.1076         0.337518   
      6. B(H   6,C   1)                  1.1028         0.343615   
      7. B(H   7,C   2)                  1.1004         0.346570   
      8. B(H   8,C   2)                  1.0978         0.349923   
      9. B(H   9,C   2)                  1.1197         0.322876   
     10. B(H  10,C   3)                  1.1012         0.345527   
     11. B(H  11,C   3)                  1.1201         0.322391   
     12. B(H  12,C   3)                  1.0957         0.352645   
     13. A(C   1,C   0,C   3)          112.3250         0.371204   
     14. A(C   2,C   0,C   3)          108.7974         0.372263   
     15. A(C   1,C   0,C   2)          111.6905         0.375444   
     16. A(H   4,C   1,H   5)          110.3431         0.285691   
     17. A(H   5,C   1,H   6)          106.3370         0.285804   
     18. A(H   4,C   1,H   6)          107.5156         0.286489   
     19. A(C   0,C   1,H   4)          109.0729         0.326330   
     20. A(C   0,C   1,H   5)          110.0690         0.325507   
     21. A(C   0,C   1,H   6)          113.4443         0.326467   
     22. A(H   7,C   2,H   9)          106.9945         0.284216   
     23. A(C   0,C   2,H   9)          108.1936         0.324023   
     24. A(H   7,C   2,H   8)          107.0002         0.287803   
     25. A(C   0,C   2,H   8)          107.3567         0.328342   
     26. A(H   8,C   2,H   9)          113.3516         0.284642   
     27. A(C   0,C   2,H   7)          114.0925         0.327821   
     28. A(H  11,C   3,H  12)          113.5442         0.284919   
     29. A(H  10,C   3,H  12)          110.4363         0.288016   
     30. A(C   0,C   3,H  12)          110.0957         0.325212   
     31. A(H  10,C   3,H  11)          112.0519         0.284017   
     32. A(C   0,C   3,H  11)          104.6967         0.320465   
     33. A(C   0,C   3,H  10)          105.5505         0.324125   
     34. D(H   6,C   1,C   0,C   2)   -116.4627         0.012307   
     35. D(H   4,C   1,C   0,C   2)    123.7330         0.012307   
     36. D(H   6,C   1,C   0,C   3)    120.9754         0.012307   
     37. D(H   5,C   1,C   0,C   2)      2.5397         0.012307   
     38. D(H   4,C   1,C   0,C   3)      1.1711         0.012307   
     39. D(H   5,C   1,C   0,C   3)   -120.0222         0.012307   
     40. D(H   7,C   2,C   0,C   1)   -119.3687         0.012706   
     41. D(H   9,C   2,C   0,C   3)    124.1343         0.012706   
     42. D(H   9,C   2,C   0,C   1)     -0.4227         0.012706   
     43. D(H   8,C   2,C   0,C   3)   -113.1916         0.012706   
     44. D(H   8,C   2,C   0,C   1)    122.2514         0.012706   
     45. D(H   7,C   2,C   0,C   3)      5.1883         0.012706   
     46. D(H  11,C   3,C   0,C   1)    -51.7447         0.011202   
     47. D(H  10,C   3,C   0,C   2)     65.6566         0.011202   
     48. D(H  10,C   3,C   0,C   1)   -170.1614         0.011202   
     49. D(H  12,C   3,C   0,C   2)    -53.5354         0.011202   
     50. D(H  12,C   3,C   0,C   1)     70.6466         0.011202   
     51. D(H  11,C   3,C   0,C   2)   -175.9267         0.011202   
    -----------------------------------------------------------------

Number of atoms                         .... 13
Number of degrees of freedom            .... 51

         *************************************************************
         *                GEOMETRY OPTIMIZATION CYCLE   1            *
         *************************************************************
---------------------------------
CARTESIAN COORDINATES (ANGSTROEM)
---------------------------------
  C     -0.058653    0.008836    0.382777
  C      1.433147    0.008372    0.174170
  C     -0.698141   -1.228168   -0.179633
  C     -0.727010    1.227936   -0.231001
  H      1.721143    0.922911   -0.371975
  H      1.737048   -0.891871   -0.395083
  H      2.007738   -0.011055    1.115200
  H     -1.438439   -1.031604   -0.969732
  H     -1.230175   -1.724483    0.642428
  H      0.105594   -1.861341   -0.634424
  H     -1.765417    1.211095    0.135288
  H     -0.152630    2.100541    0.173099
  H     -0.705799    1.158443   -1.324284

----------------------------
CARTESIAN COORDINATES (A.U.)
----------------------------
  NO LB      ZA    FRAG     MASS         X           Y           Z
   0 C     6.0000    0    12.011   -0.110838    0.016698    0.723344
   1 C     6.0000    0    12.011    2.708255    0.015821    0.329134
   2 C     6.0000    0    12.011   -1.319295   -2.320901   -0.339457
   3 C     6.0000    0    12.011   -1.373850    2.320463   -0.436529
   4 H     1.0000    0     1.008    3.252489    1.744049   -0.702931
   5 H     1.0000    0     1.008    3.282545   -1.685392   -0.746599
   6 H     1.0000    0     1.008    3.794075   -0.020891    2.107423
   7 H     1.0000    0     1.008   -2.718256   -1.949449   -1.832528
   8 H     1.0000    0     1.008   -2.324694   -3.258801    1.214013
   9 H     1.0000    0     1.008    0.199544   -3.517425   -1.198888
  10 H     1.0000    0     1.008   -3.336155    2.288638    0.255657
  11 H     1.0000    0     1.008   -0.288429    3.969447    0.327110
  12 H     1.0000    0     1.008   -1.333767    2.189140   -2.502534

--------------------------------
INTERNAL COORDINATES (ANGSTROEM)
--------------------------------
 C      0   0   0     0.000000000000     0.00000000     0.00000000
 C      1   0   0     1.506314819599     0.00000000     0.00000000
 C      1   2   0     1.501808511848   111.69050797     0.00000000
 C      1   2   3     1.519746466597   112.32502239   237.43810332
 H      2   1   3     1.103448068358   109.07285213   123.73299147
 H      2   1   3     1.107629114306   110.06900935     2.53970787
 H      2   1   3     1.102755497157   113.44425386   243.53725622
 H      3   1   2     1.100424901891   114.09250562   240.63129681
 H      3   1   2     1.097803736604   107.35673267   122.25137045
 H      3   1   2     1.119702126387   108.19361821   359.57728083
 H      4   1   2     1.101244908479   105.55052393   189.83862021
 H      4   1   2     1.120111012545   104.69672533   308.25527478
 H      4   1   2     1.095694711888   110.09571307    70.64659644

---------------------------
INTERNAL COORDINATES (A.U.)
---------------------------
 C      0   0   0     0.000000000000     0.00000000     0.00000000
 C      1   0   0     2.846522480510     0.00000000     0.00000000
 C      1   2   0     2.838006792985   111.69050797     0.00000000
 C      1   2   3     2.871904614862   112.32502239   237.43810332
 H      2   1   3     2.085214652200   109.07285213   123.73299147
 H      2   1   3     2.093115683997   110.06900935     2.53970787
 H      2   1   3     2.083905882303   113.44425386   243.53725622
 H      3   1   2     2.079501695520   114.09250562   240.63129681
 H      3   1   2     2.074548410977   107.35673267   122.25137045
 H      3   1   2     2.115930370440   108.19361821   359.57728083
 H      4   1   2     2.081051283401   105.55052393   189.83862021
 H      4   1   2     2.116703053300   104.69672533   308.25527478
 H      4   1   2     2.070562931854   110.09571307    70.64659644

---------------------
BASIS SET INFORMATION
---------------------
There are 2 groups of distinct atoms

 Group   1 Type C   : 7s4p1d contracted to 3s2p1d pattern {511/31/1}
 Group   2 Type H   : 4s contracted to 2s pattern {31}

Atom   0C    basis set group =>   1
Atom   1C    basis set group =>   1
Atom   2C    basis set group =>   1
Atom   3C    basis set group =>   1
Atom   4H    basis set group =>   2
Atom   5H    basis set group =>   2
Atom   6H    basis set group =>   2
Atom   7H    basis set group =>   2
Atom   8H    basis set group =>   2
Atom   9H    basis set group =>   2
Atom  10H    basis set group =>   2
Atom  11H    basis set group =>   2
Atom  12H    basis set group =>   2
---------------------------------
AUXILIARY/J BASIS SET INFORMATION
---------------------------------
There are 2 groups of distinct atoms

 Group   1 Type C   : 12s5p4d2f1g contracted to 6s4p3d1f1g pattern {711111/2111/211/2/1}
 Group   2 Type H   : 5s2p1d contracted to 3s1p1d pattern {311/2/1}

Atom   0C    basis set group =>   1
Atom   1C    basis set group =>   1
Atom   2C    basis set group =>   1
Atom   3C    basis set group =>   1
Atom   4H    basis set group =>   2
Atom   5H    basis set group =>   2
Atom   6H    basis set group =>   2
Atom   7H    basis set group =>   2
Atom   8H    basis set group =>   2
Atom   9H    basis set group =>   2
Atom  10H    basis set group =>   2
Atom  11H    basis set group =>   2
Atom  12H    basis set group =>   2
------------------------------------------------------------------------------
                           ORCA GTO INTEGRAL CALCULATION
------------------------------------------------------------------------------

                         BASIS SET STATISTICS AND STARTUP INFO

 # of primitive gaussian shells          ...   84
 # of primitive gaussian functions       ...  132
 # of contracted shells                  ...   42
 # of contracted basis functions         ...   74
 Highest angular momentum                ...    2
 Maximum contraction depth               ...    5
 Integral package used                   ... LIBINT
 Integral threshhold            Thresh   ...  1.000e-12
 Primitive cut-off              TCut     ...  1.000e-14


------------------------------ INTEGRAL EVALUATION ----------------------------


 * One electron integrals 
 Pre-screening matrix                    ... done
 Shell pair data                         ... done (   0.000 sec)

-------------------------------------------------------------------------------
                                 ORCA SCF
-------------------------------------------------------------------------------

------------
SCF SETTINGS
------------
Hamiltonian:
 Density Functional     Method          .... DFT(GTOs)
 Exchange Functional    Exchange        .... B88
   X-Alpha parameter    XAlpha          ....  0.666667
   Becke's b parameter  XBeta           ....  0.004200
 Correlation Functional Correlation     .... LYP
 LDA part of GGA corr.  LDAOpt          .... VWN-5
 Gradients option       PostSCFGGA      .... off
 Hybrid DFT is turned on
   Fraction HF Exchange ScalHFX         ....  0.200000
   Scaling of DF-GGA-X  ScalDFX         ....  0.720000
   Scaling of DF-GGA-C  ScalDFC         ....  0.810000
   Scaling of DF-LDA-C  ScalLDAC        ....  1.000000
   Perturbative correction              ....  0.000000
   Density functional embedding theory  .... OFF
   NL short-range parameter             ....  4.800000


General Settings:
 Integral files         IntName         .... orca1
 Hartree-Fock type      HFTyp           .... UHF
 Total Charge           Charge          ....    0
 Multiplicity           Mult            ....    2
 Number of Electrons    NEL             ....   33
 Basis Dimension        Dim             ....   74
 Nuclear Repulsion      ENuc            ....    126.6807807232 Eh

Convergence Acceleration:
 DIIS                   CNVDIIS         .... on
   Start iteration      DIISMaxIt       ....    12
   Startup error        DIISStart       ....  0.200000
   # of expansion vecs  DIISMaxEq       ....     5
   Bias factor          DIISBfac        ....   1.050
   Max. coefficient     DIISMaxC        ....  10.000
 Newton-Raphson         CNVNR           .... off
 SOSCF                  CNVSOSCF        .... off
 Level Shifting         CNVShift        .... on
   Level shift para.    LevelShift      ....    0.2500
   Turn off err/grad.   ShiftErr        ....    0.0010
 Zerner damping         CNVZerner       .... off
 Static damping         CNVDamp         .... on
   Fraction old density DampFac         ....    0.7000
   Max. Damping (<1)    DampMax         ....    0.9800
   Min. Damping (>=0)   DampMin         ....    0.0000
   Turn off err/grad.   DampErr         ....    0.1000
 Fernandez-Rico         CNVRico         .... off

SCF Procedure:
 Maximum # iterations   MaxIter         ....   500
 SCF integral mode      SCFMode         .... Direct
   Integral package                     .... LIBINT
 Reset frequency        DirectResetFreq ....    20
 Integral Threshold     Thresh          ....  1.000e-12 Eh
 Primitive CutOff       TCut            ....  1.000e-14 Eh

Convergence Tolerance:
 Convergence Check Mode ConvCheckMode   .... Total+1el-Energy
 Convergence forced     ConvForced      .... 0
 Energy Change          TolE            ....  1.000e-09 Eh
 1-El. energy change                    ....  1.000e-06 Eh
 DIIS Error             TolErr          ....  1.000e-08


Diagonalization of the overlap matrix:
Smallest eigenvalue                        ... 1.853e-03
Time for diagonalization                   ...    0.010 sec
Threshold for overlap eigenvalues          ... 1.000e-08
Number of eigenvalues below threshold      ... 0
Time for construction of square roots      ...    0.530 sec
Total time needed                          ...    0.540 sec

-------------------
DFT GRID GENERATION
-------------------

General Integration Accuracy     IntAcc      ...  4.340
Radial Grid Type                 RadialGrid  ... Gauss-Chebyshev
Angular Grid (max. acc.)         AngularGrid ... Lebedev-110
Angular grid pruning method      GridPruning ... 3 (G Style)
Weight generation scheme         WeightScheme... Becke
Basis function cutoff            BFCut       ...    1.0000e-12
Integration weight cutoff        WCut        ...    1.0000e-14
Grids for H and He will be reduced by one unit

# of grid points (after initial pruning)     ...  13770 (   0.0 sec)
# of grid points (after weights+screening)   ...  12885 (   0.0 sec)
nearest neighbour list constructed           ...    0.0 sec
Grid point re-assignment to atoms done       ...    0.0 sec
Grid point division into batches done        ...    0.0 sec
Reduced shell lists constructed in    0.0 sec

Total number of grid points                  ...    12885
Total number of batches                      ...      208
Average number of points per batch           ...       61
Average number of grid points per atom       ...      991
Average number of shells per batch           ...    37.30 (88.80%)
Average number of basis functions per batch  ...    66.55 (89.93%)
Average number of large shells per batch     ...    32.50 (87.15%)
Average number of large basis fcns per batch ...    57.71 (86.71%)
Maximum spatial batch extension              ...  20.74, 25.60, 20.92 au
Average spatial batch extension              ...   4.06,  4.09,  4.04 au

Time for grid setup =    0.271 sec

------------------------------
INITIAL GUESS: MODEL POTENTIAL
------------------------------
Loading Hartree-Fock densities                     ... done
Calculating cut-offs                               ... done
Setting up the integral package                    ... done
Initializing the effective Hamiltonian             ... done
Starting the Coulomb interaction                   ... done (   0.0 sec)
Reading the grid                                   ... done
Mapping shells                                     ... done
Starting the XC term evaluation                    ... done (   0.1 sec)
  promolecular density results
     # of electrons  =     32.991940539
     EX              =    -23.193310131
     EC              =     -1.032789193
     EX+EC           =    -24.226099324
Transforming the Hamiltonian                       ... done (   1.3 sec)
Diagonalizing the Hamiltonian                      ... done (   0.0 sec)
Back transforming the eigenvectors                 ... done (   0.0 sec)
Now organizing SCF variables                       ... done
                      ------------------
                      INITIAL GUESS DONE (   1.8 sec)
                      ------------------
--------------
SCF ITERATIONS
--------------
ITER       Energy         Delta-E        Max-DP      RMS-DP      [F,P]     Damp
               ***  Starting incremental Fock matrix formation  ***
  0   -157.3501553538   0.000000000000 0.04339981  0.00230223  0.1712084 0.7000
  1   -157.4259547499  -0.075799396099 0.02699800  0.00167953  0.0897284 0.7000
                               ***Turning on DIIS***
  2   -157.4567889782  -0.030834228310 0.04253298  0.00273498  0.0341522 0.0000
  3   -157.4978936493  -0.041104671070 0.02122969  0.00121036  0.0488347 0.0000
  4   -157.5117061478  -0.013812498530 0.00365437  0.00035742  0.0107943 0.0000
  5   -157.5124866029  -0.000780455046 0.00184907  0.00013719  0.0021774 0.0000
  6   -157.5125463835  -0.000059780562 0.00124024  0.00008653  0.0005051 0.0000
  7   -157.5125559140  -0.000009530537 0.00038794  0.00001299  0.0003530 0.0000
  8   -157.5125564744  -0.000000560421 0.00018206  0.00000520  0.0001604 0.0000
  9   -157.5125566256  -0.000000151174 0.00004299  0.00000187  0.0000153 0.0000
 10   -157.5125566400  -0.000000014432 0.00001409  0.00000063  0.0000065 0.0000
 11   -157.5125566423  -0.000000002286 0.00000583  0.00000029  0.0000030 0.0000
 12   -157.5125566428  -0.000000000500 0.00000212  0.00000012  0.0000013 0.0000
 13   -157.5125566429  -0.000000000114 0.00000218  0.00000011  0.0000005 0.0000
 14   -157.5125566430  -0.000000000043 0.00000036  0.00000002  0.0000004 0.0000
 15   -157.5125566430   0.000000000007 0.00000039  0.00000002  0.0000002 0.0000
                 **** Energy Check signals convergence ****

 Fermi smearing  (ALPHA): E(HOMO(Eh)) = -0.315316 MUE = -0.069733 gap=   7.023 eV
 Fermi smearing   (BETA): E(HOMO(Eh)) = -0.309299 MUE = -0.178194 gap=   7.124 eV

N_FOD(alpha) =  0.000000
 N_FOD(beta) =  0.000000
       N_FOD =  0.000000

               *****************************************************
               *                     SUCCESS                       *
               *           SCF CONVERGED AFTER  16 CYCLES          *
               *****************************************************

Setting up the final grid:

General Integration Accuracy     IntAcc      ...  4.670
Radial Grid Type                 RadialGrid  ... Gauss-Chebyshev
Angular Grid (max. acc.)         AngularGrid ... Lebedev-302
Angular grid pruning method      GridPruning ... 3 (G Style)
Weight generation scheme         WeightScheme... Becke
Basis function cutoff            BFCut       ...    1.0000e-12
Integration weight cutoff        WCut        ...    1.0000e-14
Grids for H and He will be reduced by one unit

# of grid points (after initial pruning)     ...  55394 (   0.0 sec)
# of grid points (after weights+screening)   ...  51162 (   0.1 sec)
nearest neighbour list constructed           ...    0.0 sec
Grid point re-assignment to atoms done       ...    0.0 sec
Grid point division into batches done        ...    0.2 sec
Reduced shell lists constructed in    0.3 sec

Total number of grid points                  ...    51162
Total number of batches                      ...      805
Average number of points per batch           ...       63
Average number of grid points per atom       ...     3936
Average number of shells per batch           ...    35.09 (83.54%)
Average number of basis functions per batch  ...    62.35 (84.26%)
Average number of large shells per batch     ...    29.74 (84.76%)
Average number of large basis fcns per batch ...    52.48 (84.16%)
Maximum spatial batch extension              ...  21.21, 18.99, 21.26 au
Average spatial batch extension              ...   2.64,  2.66,  2.68 au

Final grid set up in    1.0 sec
Final integration                            ... done (   3.7 sec)
Change in XC energy                          ...    -0.000114507
Integrated number of electrons               ...    33.000067687
Previous integrated no of electrons          ...    32.999162967

----------------
TOTAL SCF ENERGY
----------------

Total Energy       :         -157.51267115 Eh           -4286.13769 eV

Components:
Nuclear Repulsion  :          126.68078072 Eh            3447.15929 eV
Electronic Energy  :         -284.19345187 Eh           -7733.29698 eV
One Electron Energy:         -460.92506701 Eh          -12542.40872 eV
Two Electron Energy:          176.73161513 Eh            4809.11174 eV

Virial components:
Potential Energy   :         -313.44178124 Eh           -8529.18448 eV
Kinetic Energy     :          155.92911009 Eh            4243.04680 eV
Virial Ratio       :            2.01015565


DFT components:
N(Alpha)           :       17.000033992469 electrons
N(Beta)            :       16.000033695015 electrons
N(Total)           :       33.000067687484 electrons
E(X)               :      -18.894187763724 Eh       
E(C)               :       -1.223094470772 Eh       
E(XC)              :      -20.117282234497 Eh       
DFET-embed. en.    :        0.000000000000 Eh       

---------------
SCF CONVERGENCE
---------------

  Last Energy change         ...    7.7591e-12  Tolerance :   1.0000e-09
  Last MAX-Density change    ...    2.3351e-07  Tolerance :   1.0000e-08
  Last RMS-Density change    ...    1.5017e-08  Tolerance :   1.0000e-09
  Last DIIS Error            ...    2.2113e-08  Tolerance :   1.0000e-08

             **** THE GBW FILE WAS UPDATED (orca1.gbw) ****
             **** DENSITY FILE WAS UPDATED (orca1.scfp) ****
             **** ENERGY FILE WAS UPDATED (orca1.en.tmp) ****
             **** THE GBW FILE WAS UPDATED (orca1.gbw) ****
             **** DENSITY FILE WAS UPDATED (orca1.scfp) ****
----------------
ORBITAL ENERGIES
----------------
                 SPIN UP ORBITALS
  NO   OCC          E(Eh)            E(eV) 
   0   1.0000     -10.187203      -277.2079 
   1   1.0000     -10.168369      -276.6954 
   2   1.0000     -10.166068      -276.6328 
   3   1.0000     -10.164298      -276.5846 
   4   1.0000      -0.799192       -21.7471 
   5   1.0000      -0.676185       -18.3999 
   6   1.0000      -0.672239       -18.2925 
   7   1.0000      -0.522694       -14.2232 
   8   1.0000      -0.452352       -12.3091 
   9   1.0000      -0.439030       -11.9466 
  10   1.0000      -0.429546       -11.6885 
  11   1.0000      -0.396595       -10.7919 
  12   1.0000      -0.388836       -10.5808 
  13   1.0000      -0.353949        -9.6314 
  14   1.0000      -0.332720        -9.0538 
  15   1.0000      -0.315316        -8.5802 
  16   1.0000      -0.198770        -5.4088 
  17   0.0000       0.059304         1.6137 
  18   0.0000       0.100391         2.7318 
  19   0.0000       0.108607         2.9553 
  20   0.0000       0.118217         3.2168 
  21   0.0000       0.124119         3.3775 
  22   0.0000       0.137259         3.7350 
  23   0.0000       0.140730         3.8295 
  24   0.0000       0.158096         4.3020 
  25   0.0000       0.175038         4.7630 
  26   0.0000       0.205852         5.6015 
  27   0.0000       0.280883         7.6432 
  28   0.0000       0.294149         8.0042 
  29   0.0000       0.417196        11.3525 
  30   0.0000       0.435124        11.8403 
  31   0.0000       0.451326        12.2812 
  32   0.0000       0.499936        13.6040 
  33   0.0000       0.519783        14.1440 
  34   0.0000       0.536521        14.5995 
  35   0.0000       0.557914        15.1816 
  36   0.0000       0.571838        15.5605 
  37   0.0000       0.606039        16.4912 
  38   0.0000       0.622341        16.9348 
  39   0.0000       0.662592        18.0301 
  40   0.0000       0.679742        18.4967 
  41   0.0000       0.684764        18.6334 
  42   0.0000       0.695768        18.9328 
  43   0.0000       0.699925        19.0459 
  44   0.0000       0.716002        19.4834 
  45   0.0000       0.722843        19.6696 
  46   0.0000       0.735291        20.0083 
  47   0.0000       0.745335        20.2816 
  48   0.0000       0.746420        20.3111 
  49   0.0000       0.759775        20.6745 
  50   0.0000       0.770540        20.9675 
  51   0.0000       0.907499        24.6943 
  52   0.0000       0.950475        25.8637 
  53   0.0000       0.989239        26.9185 
  54   0.0000       1.380181        37.5566 
  55   0.0000       1.396533        38.0016 
  56   0.0000       1.765112        48.0311 
  57   0.0000       1.777615        48.3714 
  58   0.0000       1.800941        49.0061 
  59   0.0000       1.821987        49.5788 
  60   0.0000       1.875971        51.0478 
  61   0.0000       1.934053        52.6283 
  62   0.0000       1.970807        53.6284 
  63   0.0000       2.080738        56.6198 
  64   0.0000       2.100960        57.1700 
  65   0.0000       2.135588        58.1123 
  66   0.0000       2.164414        58.8967 
  67   0.0000       2.175432        59.1965 
  68   0.0000       2.210632        60.1544 
  69   0.0000       2.408224        65.5311 
  70   0.0000       2.419345        65.8337 
  71   0.0000       2.461296        66.9753 
  72   0.0000       2.700781        73.4920 
  73   0.0000       2.715247        73.8856 

                 SPIN DOWN ORBITALS
  NO   OCC          E(Eh)            E(eV) 
   0   1.0000     -10.172261      -276.8013 
   1   1.0000     -10.168725      -276.7051 
   2   1.0000     -10.166400      -276.6418 
   3   1.0000     -10.164707      -276.5958 
   4   1.0000      -0.784329       -21.3427 
   5   1.0000      -0.673445       -18.3254 
   6   1.0000      -0.669698       -18.2234 
   7   1.0000      -0.504285       -13.7223 
   8   1.0000      -0.439579       -11.9616 
   9   1.0000      -0.433417       -11.7939 
  10   1.0000      -0.425162       -11.5693 
  11   1.0000      -0.390625       -10.6294 
  12   1.0000      -0.383272       -10.4294 
  13   1.0000      -0.352400        -9.5893 
  14   1.0000      -0.326633        -8.8881 
  15   1.0000      -0.309299        -8.4164 
  16   0.0000      -0.047494        -1.2924 
  17   0.0000       0.062225         1.6932 
  18   0.0000       0.101565         2.7637 
  19   0.0000       0.109493         2.9795 
  20   0.0000       0.121199         3.2980 
  21   0.0000       0.128405         3.4941 
  22   0.0000       0.140952         3.8355 
  23   0.0000       0.142434         3.8758 
  24   0.0000       0.159744         4.3469 
  25   0.0000       0.178933         4.8690 
  26   0.0000       0.214053         5.8247 
  27   0.0000       0.290476         7.9042 
  28   0.0000       0.303739         8.2652 
  29   0.0000       0.422576        11.4989 
  30   0.0000       0.438147        11.9226 
  31   0.0000       0.459976        12.5166 
  32   0.0000       0.517864        14.0918 
  33   0.0000       0.525427        14.2976 
  34   0.0000       0.562157        15.2971 
  35   0.0000       0.576616        15.6905 
  36   0.0000       0.588003        16.0004 
  37   0.0000       0.610165        16.6034 
  38   0.0000       0.632535        17.2121 
  39   0.0000       0.663506        18.0549 
  40   0.0000       0.682602        18.5746 
  41   0.0000       0.689639        18.7660 
  42   0.0000       0.697026        18.9670 
  43   0.0000       0.702709        19.1217 
  44   0.0000       0.718491        19.5511 
  45   0.0000       0.724616        19.7178 
  46   0.0000       0.737905        20.0794 
  47   0.0000       0.746540        20.3144 
  48   0.0000       0.756356        20.5815 
  49   0.0000       0.764301        20.7977 
  50   0.0000       0.779573        21.2133 
  51   0.0000       0.911868        24.8132 
  52   0.0000       0.962897        26.2018 
  53   0.0000       0.993604        27.0373 
  54   0.0000       1.396232        37.9934 
  55   0.0000       1.412256        38.4294 
  56   0.0000       1.765411        48.0393 
  57   0.0000       1.806462        49.1563 
  58   0.0000       1.813099        49.3369 
  59   0.0000       1.828348        49.7519 
  60   0.0000       1.885172        51.2981 
  61   0.0000       1.947795        53.0022 
  62   0.0000       1.984820        54.0097 
  63   0.0000       2.089105        56.8474 
  64   0.0000       2.105941        57.3056 
  65   0.0000       2.136102        58.1263 
  66   0.0000       2.165877        58.9365 
  67   0.0000       2.178066        59.2682 
  68   0.0000       2.214044        60.2472 
  69   0.0000       2.433436        66.2172 
  70   0.0000       2.443821        66.4997 
  71   0.0000       2.486823        67.6699 
  72   0.0000       2.715263        73.8861 
  73   0.0000       2.728818        74.2549 

                    ********************************
                    * MULLIKEN POPULATION ANALYSIS *
                    ********************************

------------------------------------------
FOD BASED MULLIKEN REDUCED ORBITAL CHARGES
------------------------------------------
  0 C s       :     0.000000  s :     0.000000
      pz      :     0.000000  p :     0.000000
      px      :     0.000000
      py      :     0.000000
      dz2     :     0.000000  d :     0.000000
      dxz     :     0.000000
      dyz     :     0.000000
      dx2y2   :     0.000000
      dxy     :     0.000000
  1 C s       :    -0.000000  s :    -0.000000
      pz      :     0.000000  p :     0.000000
      px      :     0.000000
      py      :     0.000000
      dz2     :     0.000000  d :     0.000000
      dxz     :     0.000000
      dyz     :     0.000000
      dx2y2   :     0.000000
      dxy     :     0.000000
  2 C s       :    -0.000000  s :    -0.000000
      pz      :     0.000000  p :     0.000000
      px      :     0.000000
      py      :     0.000000
      dz2     :     0.000000  d :     0.000000
      dxz     :     0.000000
      dyz     :     0.000000
      dx2y2   :     0.000000
      dxy     :     0.000000
  3 C s       :    -0.000000  s :    -0.000000
      pz      :     0.000000  p :     0.000000
      px      :     0.000000
      py      :     0.000000
      dz2     :     0.000000  d :     0.000000
      dxz     :     0.000000
      dyz     :     0.000000
      dx2y2   :     0.000000
      dxy     :     0.000000
  4 H s       :     0.000000  s :     0.000000
  5 H s       :     0.000000  s :     0.000000
  6 H s       :     0.000000  s :     0.000000
  7 H s       :     0.000000  s :     0.000000
  8 H s       :     0.000000  s :     0.000000
  9 H s       :     0.000000  s :     0.000000
 10 H s       :     0.000000  s :     0.000000
 11 H s       :     0.000000  s :     0.000000
 12 H s       :     0.000000  s :     0.000000


                     *******************************
                     * LOEWDIN POPULATION ANALYSIS *
                     *******************************

-------------------------------------------
LOEWDIN ATOMIC CHARGES AND SPIN POPULATIONS
-------------------------------------------
   0 C :   -0.079358    0.846052
   1 C :   -0.318660   -0.006441
   2 C :   -0.321401   -0.009345
   3 C :   -0.314978   -0.008465
   4 H :    0.114234    0.015929
   5 H :    0.111210    0.017132
   6 H :    0.120103    0.029057
   7 H :    0.111561    0.018172
   8 H :    0.123954    0.027424
   9 H :    0.111653    0.012620
  10 H :    0.114793    0.010856
  11 H :    0.109254    0.003576
  12 H :    0.117637    0.043433

----------------------------------------------------
LOEWDIN REDUCED ORBITAL CHARGES AND SPIN POPULATIONS
----------------------------------------------------
CHARGE
  0 C s       :     2.935742  s :     2.935742
      pz      :     0.975080  p :     3.051006
      px      :     1.034088
      py      :     1.041837
      dz2     :     0.009239  d :     0.092610
      dxz     :     0.011826
      dyz     :     0.017487
      dx2y2   :     0.029887
      dxy     :     0.024171
  1 C s       :     2.955248  s :     2.955248
      pz      :     1.110737  p :     3.287000
      px      :     1.072469
      py      :     1.103794
      dz2     :     0.008234  d :     0.076412
      dxz     :     0.020779
      dyz     :     0.015272
      dx2y2   :     0.020043
      dxy     :     0.012084
  2 C s       :     2.954931  s :     2.954931
      pz      :     1.097332  p :     3.289725
      px      :     1.102514
      py      :     1.089879
      dz2     :     0.007043  d :     0.076746
      dxz     :     0.024234
      dyz     :     0.017170
      dx2y2   :     0.009690
      dxy     :     0.018609
  3 C s       :     2.960760  s :     2.960760
      pz      :     1.091336  p :     3.277406
      px      :     1.101419
      py      :     1.084652
      dz2     :     0.024200  d :     0.076811
      dxz     :     0.008039
      dyz     :     0.011618
      dx2y2   :     0.018145
      dxy     :     0.014810
  4 H s       :     0.885766  s :     0.885766
  5 H s       :     0.888790  s :     0.888790
  6 H s       :     0.879897  s :     0.879897
  7 H s       :     0.888439  s :     0.888439
  8 H s       :     0.876046  s :     0.876046
  9 H s       :     0.888347  s :     0.888347
 10 H s       :     0.885207  s :     0.885207
 11 H s       :     0.890746  s :     0.890746
 12 H s       :     0.882363  s :     0.882363

SPIN
  0 C s       :     0.084464  s :     0.084464
      pz      :     0.702808  p :     0.764400
      px      :     0.042423
      py      :     0.019169
      dz2     :     0.000208  d :    -0.002812
      dxz     :    -0.000518
      dyz     :    -0.001264
      dx2y2   :    -0.000854
      dxy     :    -0.000385
  1 C s       :    -0.000713  s :    -0.000713
      pz      :    -0.005433  p :    -0.018287
      px      :    -0.008638
      py      :    -0.004217
      dz2     :     0.000308  d :     0.012558
      dxz     :     0.010244
      dyz     :     0.000190
      dx2y2   :     0.001624
      dxy     :     0.000192
  2 C s       :    -0.000687  s :    -0.000687
      pz      :    -0.004302  p :    -0.020811
      px      :    -0.005550
      py      :    -0.010958
      dz2     :     0.001907  d :     0.012152
      dxz     :     0.002274
      dyz     :     0.004910
      dx2y2   :     0.000346
      dxy     :     0.002715
  3 C s       :    -0.000215  s :    -0.000215
      pz      :    -0.006255  p :    -0.019983
      px      :    -0.004794
      py      :    -0.008934
      dz2     :     0.007254  d :     0.011733
      dxz     :     0.000743
      dyz     :     0.002492
      dx2y2   :     0.000301
      dxy     :     0.000942
  4 H s       :     0.015929  s :     0.015929
  5 H s       :     0.017132  s :     0.017132
  6 H s       :     0.029057  s :     0.029057
  7 H s       :     0.018172  s :     0.018172
  8 H s       :     0.027424  s :     0.027424
  9 H s       :     0.012620  s :     0.012620
 10 H s       :     0.010856  s :     0.010856
 11 H s       :     0.003576  s :     0.003576
 12 H s       :     0.043433  s :     0.043433


                      *****************************
                      * MAYER POPULATION ANALYSIS *
                      *****************************

  NA   - Mulliken gross atomic population
  ZA   - Total nuclear charge
  QA   - Mulliken gross atomic charge
  VA   - Mayer's total valence
  BVA  - Mayer's bonded valence
  FA   - Mayer's free valence

  ATOM       NA         ZA         QA         VA         BVA        FA
  0 C      6.1234     6.0000    -0.1234     4.1537     3.4126     0.7411
  1 C      6.2410     6.0000    -0.2410     3.9191     3.9165     0.0026
  2 C      6.2496     6.0000    -0.2496     3.9139     3.9114     0.0025
  3 C      6.2406     6.0000    -0.2406     3.9561     3.9534     0.0027
  4 H      0.9120     1.0000     0.0880     0.9694     0.9689     0.0005
  5 H      0.9115     1.0000     0.0885     0.9669     0.9663     0.0006
  6 H      0.8977     1.0000     0.1023     0.9510     0.9500     0.0010
  7 H      0.9097     1.0000     0.0903     0.9647     0.9641     0.0006
  8 H      0.8952     1.0000     0.1048     0.9526     0.9518     0.0008
  9 H      0.9099     1.0000     0.0901     0.9688     0.9685     0.0003
 10 H      0.9060     1.0000     0.0940     0.9551     0.9550     0.0001
 11 H      0.9070     1.0000     0.0930     0.9578     0.9578     0.0000
 12 H      0.8965     1.0000     0.1035     0.9547     0.9516     0.0032

  Mayer bond orders larger than 0.100000
B(  0-C ,  1-C ) :   1.0951 B(  0-C ,  2-C ) :   1.0868 B(  0-C ,  3-C ) :   1.1160 
B(  1-C ,  4-H ) :   0.9527 B(  1-C ,  5-H ) :   0.9458 B(  1-C ,  6-H ) :   0.9453 
B(  2-C ,  7-H ) :   0.9500 B(  2-C ,  8-H ) :   0.9449 B(  2-C ,  9-H ) :   0.9481 
B(  3-C , 10-H ) :   0.9539 B(  3-C , 11-H ) :   0.9534 B(  3-C , 12-H ) :   0.9305 


-------
TIMINGS
-------

Total SCF time: 0 days 0 hours 2 min 9 sec 

Total time                  ....     129.166 sec
Sum of individual times     ....     110.113 sec  ( 85.2%)

Fock matrix formation       ....      97.702 sec  ( 75.6%)
  XC integration            ....      45.777 sec  ( 46.9% of F)
    Basis function eval.    ....       1.041 sec  (  2.3% of XC)
    Density eval.           ....       0.728 sec  (  1.6% of XC)
    XC-Functional eval.     ....       0.450 sec  (  1.0% of XC)
    XC-Potential eval.      ....       0.979 sec  (  2.1% of XC)
Diagonalization             ....       0.049 sec  (  0.0%)
Density matrix formation    ....       7.100 sec  (  5.5%)
Population analysis         ....       0.706 sec  (  0.5%)
Initial guess               ....       1.521 sec  (  1.2%)
Orbital Transformation      ....       0.000 sec  (  0.0%)
Orbital Orthonormalization  ....       0.000 sec  (  0.0%)
DIIS solution               ....       1.742 sec  (  1.3%)
Grid generation             ....       1.292 sec  (  1.0%)


-------------------------------------------------------------------------------
                          DFT DISPERSION CORRECTION                            
                                                                               
                              DFTD3 V3.1  Rev 1                                
                          USING Becke-Johnson damping                          
-------------------------------------------------------------------------------
The B3LYP functional is recognized
Active option DFTDOPT                   ...         4   

molecular C6(AA) [au] = 1132.567620 


            DFT-D V3
 parameters
 s6 scaling factor         :     1.0000 
 a1 scaling factor         :     0.3981 
 s8 scaling factor         :     1.9889 
 a2 scaling factor         :     4.4211 
 ad hoc parameters k1-k3   :    16.0000     1.3333    -4.0000 

 Edisp/kcal,au: -9.064875538061  -0.014445797149 
 E6   /kcal   :  -4.494982842 
 E8   /kcal   :  -4.569892696 
 % E8         :  50.413187441 

-------------------------   ----------------
Dispersion correction           -0.014445797
-------------------------   ----------------


-------------------------   --------------------
FINAL SINGLE POINT ENERGY      -157.527116947570
-------------------------   --------------------

------------------------------------------------------------------------------
                         ORCA SCF GRADIENT CALCULATION
------------------------------------------------------------------------------

Gradient of the Kohn-Sham DFT energy:
Kohn-Sham wavefunction type      ... UKS
Hartree-Fock exchange scaling    ...    0.200
Number of operators              ...    2
Number of atoms                  ...   13
Basis set dimensions             ...   74
Integral neglect threshold       ... 1.0e-12
Integral primitive cutoff        ... 1.0e-14

Nuclear repulsion gradient       ... done
One Electron Gradient            ... done
Pre-screening matrix             ... done
Starting the two electron gradient:
Two electron gradient done
Exchange-correlation gradient    ... done
Dispersion correction            ... done

------------------
CARTESIAN GRADIENT
------------------

   1   C   :   -0.003628370   -0.003619273    0.055615699
   2   C   :   -0.005803756   -0.001217754   -0.013002720
   3   C   :   -0.004398377    0.013701181   -0.010687311
   4   C   :   -0.011238481   -0.001787574   -0.046980222
   5   H   :   -0.006311805    0.000492854    0.000937265
   6   H   :   -0.004374183   -0.004804837    0.000006080
   7   H   :   -0.003224177   -0.001396467   -0.003324555
   8   H   :    0.003735569   -0.003545677    0.001222253
   9   H   :    0.002998534    0.015360088    0.000263884
  10   H   :    0.014081934    0.005124431   -0.008202245
  11   H   :    0.005203106   -0.010973462    0.005034396
  12   H   :    0.014354925   -0.003406413    0.011657719
  13   H   :   -0.001394919   -0.003927098    0.007459758

Difference to translation invariance:
           :    0.0000000000   -0.0000000000   -0.0000000000

Norm of the cartesian gradient     ...    0.0851609271
RMS gradient                       ...    0.0136366620
MAX gradient                       ...    0.0556156985

-------
TIMINGS
-------

Total SCF gradient time            ...        4.326 sec

One electron gradient       ....       0.028 sec  (  0.6%)
Prescreening matrices       ....       0.029 sec  (  0.7%)
Two electron gradient       ....       1.439 sec  ( 33.3%)
XC gradient                 ....       2.662 sec  ( 61.5%)
------------------------------------------------------------------------------
                         ORCA GEOMETRY RELAXATION STEP
------------------------------------------------------------------------------

Reading the OPT-File                    .... done
Getting information on internals        .... done
Copying old internal coords+grads       .... done
Making the new internal coordinates     .... (new redundants).... done
Validating the new internal coordinates .... (new redundants).... done
Calculating the B-matrix                .... done
Calculating the G,G- and P matrices     .... done
Transforming gradient to internals      .... done
Projecting the internal gradient        .... done
Number of atoms                         ....  13
Number of internal coordinates          ....  51
Current Energy                          ....  -157.527116948 Eh
Current gradient norm                   ....     0.085160927 Eh/bohr
Maximum allowed component of the step   ....  0.300
Current trust radius                    ....  0.300
Evaluating the initial hessian          ....  (Almloef) done
Projecting the Hessian                  .... done
Forming the augmented Hessian           .... done
Diagonalizing the augmented Hessian     .... done
Last element of RFO vector              ....  0.887726413
Lowest eigenvalues of augmented Hessian:
 -0.027105333  0.011272585  0.012306794  0.012706944  0.057427655
Length of the computed step             ....  0.518596026
Warning: the length of the step is outside the trust region - taking restricted step instead
The input lambda is                     ....    -0.027105
   iter:   1  x=   -0.052140  g=    7.147872 f(x)=     0.178942
   iter:   2  x=   -0.074600  g=    2.871969 f(x)=     0.064505
   iter:   3  x=   -0.085502  g=    1.551571 f(x)=     0.016915
   iter:   4  x=   -0.087165  g=    1.204418 f(x)=     0.002003
   iter:   5  x=   -0.087196  g=    1.161224 f(x)=     0.000036
   iter:   6  x=   -0.087196  g=    1.160435 f(x)=     0.000000
   iter:   7  x=   -0.087196  g=    1.160435 f(x)=     0.000000
The output lambda is                    ....    -0.087196 (7 iterations)
The final length of the internal step   ....  0.300000000
Converting the step to cartesian space:
 Initial RMS(Int)=    0.0420084025
Transforming coordinates:
 Iter   0:  RMS(Cart)=    0.0754183590 RMS(Int)=    0.0426787330
 Iter   1:  RMS(Cart)=    0.0030622434 RMS(Int)=    0.0015886379
 Iter   2:  RMS(Cart)=    0.0000954475 RMS(Int)=    0.0000734958
 Iter   3:  RMS(Cart)=    0.0000081993 RMS(Int)=    0.0000050327
 Iter   4:  RMS(Cart)=    0.0000004350 RMS(Int)=    0.0000003626
 Iter   5:  RMS(Cart)=    0.0000000313 RMS(Int)=    0.0000000199
done
Storing new coordinates                 .... done

                                .--------------------.
          ----------------------|Geometry convergence|-------------------------
          Item                value                   Tolerance       Converged
          ---------------------------------------------------------------------
          RMS gradient        0.0098582029            0.0001000000      NO
          MAX gradient        0.0256952644            0.0003000000      NO
          RMS step            0.0420084025            0.0020000000      NO
          MAX step            0.0768632045            0.0040000000      NO
          ........................................................
          Max(Bonds)      0.0271      Max(Angles)    3.59
          Max(Dihed)        4.40      Max(Improp)    0.00
          ---------------------------------------------------------------------

The optimization has not yet converged - more geometry cycles are needed


    ---------------------------------------------------------------------------
                         Redundant Internal Coordinates
                            (Angstroem and degrees)

        Definition                    Value    dE/dq     Step     New-Value
    ----------------------------------------------------------------------------
     1. B(C   1,C   0)                1.5063 -0.017398  0.0186    1.5249   
     2. B(C   2,C   0)                1.5018 -0.025695  0.0271    1.5289   
     3. B(C   3,C   0)                1.5197 -0.009955  0.0111    1.5308   
     4. B(H   4,C   1)                1.1034 -0.001709  0.0021    1.1056   
     5. B(H   5,C   1)                1.1076  0.002703 -0.0034    1.1043   
     6. B(H   6,C   1)                1.1028 -0.004489  0.0055    1.1083   
     7. B(H   7,C   2)                1.1004 -0.004014  0.0049    1.1053   
     8. B(H   8,C   2)                1.0978 -0.008209  0.0099    1.1077   
     9. B(H   9,C   2)                1.1197  0.010545 -0.0136    1.1061   
    10. B(H  10,C   3)                1.1012 -0.003063  0.0037    1.1050   
    11. B(H  11,C   3)                1.1201  0.008918 -0.0115    1.1086   
    12. B(H  12,C   3)                1.0957 -0.007229  0.0087    1.1044   
    13. A(C   1,C   0,C   3)          112.33  0.002904    1.01    113.33   
    14. A(C   2,C   0,C   3)          108.80 -0.007253    2.78    111.57   
    15. A(C   1,C   0,C   2)          111.69 -0.012197    3.59    115.28   
    16. A(H   4,C   1,H   5)          110.34  0.006680   -0.94    109.40   
    17. A(H   5,C   1,H   6)          106.34  0.002490   -0.30    106.04   
    18. A(H   4,C   1,H   6)          107.52  0.004307   -0.73    106.79   
    19. A(C   0,C   1,H   4)          109.07 -0.007031    0.98    110.05   
    20. A(C   0,C   1,H   5)          110.07 -0.006970    1.05    111.12   
    21. A(C   0,C   1,H   6)          113.44  0.001324   -0.17    113.27   
    22. A(H   7,C   2,H   9)          106.99  0.001649   -0.03    106.97   
    23. A(C   0,C   2,H   9)          108.19 -0.014513    2.10    110.29   
    24. A(H   7,C   2,H   8)          107.00  0.004297   -0.64    106.36   
    25. A(C   0,C   2,H   8)          107.36 -0.014866    2.02    109.38   
    26. A(H   8,C   2,H   9)          113.35  0.016166   -2.57    110.78   
    27. A(C   0,C   2,H   7)          114.09  0.008583   -1.08    113.01   
    28. A(H  11,C   3,H  12)          113.54  0.012382   -1.96    111.59   
    29. A(H  10,C   3,H  12)          110.44  0.007988   -1.19    109.25   
    30. A(C   0,C   3,H  12)          110.10  0.002393   -0.34    109.76   
    31. A(H  10,C   3,H  11)          112.05  0.013706   -1.80    110.25   
    32. A(C   0,C   3,H  11)          104.70 -0.023301    3.37    108.06   
    33. A(C   0,C   3,H  10)          105.55 -0.017271    2.53    108.08   
    34. D(H   6,C   1,C   0,C   2)   -116.46 -0.007499    3.34   -113.12   
    35. D(H   4,C   1,C   0,C   2)    123.73 -0.008909    3.70    127.43   
    36. D(H   6,C   1,C   0,C   3)    120.98  0.008888   -3.68    117.29   
    37. D(H   5,C   1,C   0,C   2)      2.54 -0.008324    3.58      6.12   
    38. D(H   4,C   1,C   0,C   3)      1.17  0.007478   -3.33     -2.16   
    39. D(H   5,C   1,C   0,C   3)   -120.02  0.008063   -3.44   -123.46   
    40. D(H   7,C   2,C   0,C   1)   -119.37  0.005834   -3.07   -122.44   
    41. D(H   9,C   2,C   0,C   3)    124.13 -0.006674    3.41    127.55   
    42. D(H   9,C   2,C   0,C   1)     -0.42  0.003204   -2.33     -2.75   
    43. D(H   8,C   2,C   0,C   3)   -113.19 -0.004461    2.74   -110.45   
    44. D(H   8,C   2,C   0,C   1)    122.25  0.005417   -3.00    119.25   
    45. D(H   7,C   2,C   0,C   3)      5.19 -0.004044    2.67      7.85   
    46. D(H  11,C   3,C   0,C   1)    -51.74 -0.010301    3.55    -48.20   
    47. D(H  10,C   3,C   0,C   2)     65.66  0.011546   -4.40     61.25   
    48. D(H  10,C   3,C   0,C   1)   -170.16 -0.007371    2.91   -167.25   
    49. D(H  12,C   3,C   0,C   2)    -53.54  0.010740   -4.27    -57.81   
    50. D(H  12,C   3,C   0,C   1)     70.65 -0.008177    3.04     73.69   
    51. D(H  11,C   3,C   0,C   2)   -175.93  0.008616   -3.77   -179.69   
    ----------------------------------------------------------------------------

         *************************************************************
         *                GEOMETRY OPTIMIZATION CYCLE   2            *
         *************************************************************
---------------------------------
CARTESIAN COORDINATES (ANGSTROEM)
---------------------------------
  C     -0.042673   -0.006169    0.324448
  C      1.474147    0.022132    0.170022
  C     -0.723433   -1.277235   -0.184034
  C     -0.724799    1.249997   -0.223460
  H      1.784761    0.945862   -0.351980
  H      1.832928   -0.856387   -0.394669
  H      2.013212    0.004893    1.138202
  H     -1.487998   -1.078422   -0.957112
  H     -1.249669   -1.773062    0.655205
  H      0.022806   -1.957557   -0.635402
  H     -1.771679    1.252728    0.130149
  H     -0.185504    2.133683    0.173061
  H     -0.713693    1.229150   -1.327599

----------------------------
CARTESIAN COORDINATES (A.U.)
----------------------------
  NO LB      ZA    FRAG     MASS         X           Y           Z
   0 C     6.0000    0    12.011   -0.080640   -0.011659    0.613118
   1 C     6.0000    0    12.011    2.785735    0.041823    0.321295
   2 C     6.0000    0    12.011   -1.367090   -2.413625   -0.347773
   3 C     6.0000    0    12.011   -1.369671    2.362151   -0.422279
   4 H     1.0000    0     1.008    3.372710    1.787420   -0.665146
   5 H     1.0000    0     1.008    3.463732   -1.618336   -0.745817
   6 H     1.0000    0     1.008    3.804419    0.009247    2.150890
   7 H     1.0000    0     1.008   -2.811909   -2.037921   -1.808680
   8 H     1.0000    0     1.008   -2.361532   -3.350602    1.238159
   9 H     1.0000    0     1.008    0.043098   -3.699247   -1.200736
  10 H     1.0000    0     1.008   -3.347988    2.367313    0.245946
  11 H     1.0000    0     1.008   -0.350552    4.032076    0.327037
  12 H     1.0000    0     1.008   -1.348685    2.322757   -2.508799

--------------------------------
INTERNAL COORDINATES (ANGSTROEM)
--------------------------------
 C      0   0   0     0.000000000000     0.00000000     0.00000000
 C      1   0   0     1.524923772306     0.00000000     0.00000000
 C      1   2   0     1.528919996933   115.12783631     0.00000000
 C      1   2   3     1.530833921519   113.06334005   230.38861511
 H      2   1   3     1.105551383917   110.04679146   127.44676996
 H      2   1   3     1.104261782413   111.11244429     6.13294267
 H      2   1   3     1.108269013877   113.26979227   246.89194788
 H      3   1   2     1.105321930546   113.02065484   237.49206699
 H      3   1   2     1.107741431789   109.37015146   119.20227948
 H      3   1   2     1.106094357757   110.28278608   357.17120924
 H      4   1   2     1.104991115940   108.03810126   192.70458873
 H      4   1   2     1.108588823434   108.01813249   311.83940194
 H      4   1   2     1.104391656076   109.74675239    73.68577252

---------------------------
INTERNAL COORDINATES (A.U.)
---------------------------
 C      0   0   0     0.000000000000     0.00000000     0.00000000
 C      1   0   0     2.881688304765     0.00000000     0.00000000
 C      1   2   0     2.889240074878   115.12783631     0.00000000
 C      1   2   3     2.892856868187   113.06334005   230.38861511
 H      2   1   3     2.089189342581   110.04679146   127.44676996
 H      2   1   3     2.086752348917   111.11244429     6.13294267
 H      2   1   3     2.094324918938   113.26979227   246.89194788
 H      3   1   2     2.088755738548   113.02065484   237.49206699
 H      3   1   2     2.093327933280   109.37015146   119.20227948
 H      3   1   2     2.090215414437   110.28278608   357.17120924
 H      4   1   2     2.088130589544   108.03810126   192.70458873
 H      4   1   2     2.094929271416   108.01813249   311.83940194
 H      4   1   2     2.086997774571   109.74675239    73.68577252


Diagonalization of the overlap matrix:
Smallest eigenvalue                        ... 2.357e-03
Time for diagonalization                   ...    0.001 sec
Threshold for overlap eigenvalues          ... 1.000e-08
Number of eigenvalues below threshold      ... 0
Time for construction of square roots      ...    2.100 sec
Total time needed                          ...    2.102 sec

-------------------
DFT GRID GENERATION
-------------------

General Integration Accuracy     IntAcc      ...  4.340
Radial Grid Type                 RadialGrid  ... Gauss-Chebyshev
Angular Grid (max. acc.)         AngularGrid ... Lebedev-110
Angular grid pruning method      GridPruning ... 3 (G Style)
Weight generation scheme         WeightScheme... Becke
Basis function cutoff            BFCut       ...    1.0000e-12
Integration weight cutoff        WCut        ...    1.0000e-14
Grids for H and He will be reduced by one unit

# of grid points (after initial pruning)     ...  13770 (   0.0 sec)
# of grid points (after weights+screening)   ...  12916 (   0.0 sec)
nearest neighbour list constructed           ...    0.0 sec
Grid point re-assignment to atoms done       ...    0.0 sec
Grid point division into batches done        ...    0.0 sec
Reduced shell lists constructed in    0.1 sec

Total number of grid points                  ...    12916
Total number of batches                      ...      209
Average number of points per batch           ...       61
Average number of grid points per atom       ...      994
Average number of shells per batch           ...    37.17 (88.49%)
Average number of basis functions per batch  ...    66.19 (89.44%)
Average number of large shells per batch     ...    32.03 (86.18%)
Average number of large basis fcns per batch ...    56.94 (86.03%)
Maximum spatial batch extension              ...  21.04, 25.60, 19.07 au
Average spatial batch extension              ...   4.17,  4.14,  4.06 au

Time for grid setup =    1.372 sec

--------------
SCF ITERATIONS
--------------
ITER       Energy         Delta-E        Max-DP      RMS-DP      [F,P]     Damp
               ***  Starting incremental Fock matrix formation  ***
  0   -157.5228519761   0.000000000000 0.00272280  0.00016765  0.0167292 0.7000
  1   -157.5235733513  -0.000721375157 0.00198736  0.00015187  0.0132315 0.7000
                               ***Turning on DIIS***
  2   -157.5241375820  -0.000564230734 0.00471266  0.00040191  0.0099290 0.0000
  3   -157.5255674253  -0.001429843282 0.00368308  0.00009484  0.0013548 0.0000
  4   -157.5255897989  -0.000022373551 0.00256192  0.00007908  0.0007272 0.0000
  5   -157.5255945938  -0.000004794974 0.00061455  0.00001890  0.0002146 0.0000
  6   -157.5255950221  -0.000000428283 0.00023346  0.00000686  0.0001253 0.0000
  7   -157.5255951317  -0.000000109601 0.00003248  0.00000144  0.0000184 0.0000
  8   -157.5255951376  -0.000000005879 0.00001883  0.00000052  0.0000054 0.0000
  9   -157.5255951382  -0.000000000569 0.00000209  0.00000011  0.0000015 0.0000
 10   -157.5255951382  -0.000000000053 0.00000088  0.00000004  0.0000006 0.0000
 11   -157.5255951382  -0.000000000002 0.00000042  0.00000002  0.0000003 0.0000
 12   -157.5255951382   0.000000000003 0.00000018  0.00000001  0.0000001 0.0000
                 **** Energy Check signals convergence ****

 Fermi smearing  (ALPHA): E(HOMO(Eh)) = -0.323661 MUE = -0.066394 gap=   6.834 eV
 Fermi smearing   (BETA): E(HOMO(Eh)) = -0.317781 MUE = -0.179016 gap=   7.525 eV

N_FOD(alpha) =  0.000000
 N_FOD(beta) =  0.000000
       N_FOD =  0.000000

               *****************************************************
               *                     SUCCESS                       *
               *           SCF CONVERGED AFTER  13 CYCLES          *
               *****************************************************

Setting up the final grid:

General Integration Accuracy     IntAcc      ...  4.670
Radial Grid Type                 RadialGrid  ... Gauss-Chebyshev
Angular Grid (max. acc.)         AngularGrid ... Lebedev-302
Angular grid pruning method      GridPruning ... 3 (G Style)
Weight generation scheme         WeightScheme... Becke
Basis function cutoff            BFCut       ...    1.0000e-12
Integration weight cutoff        WCut        ...    1.0000e-14
Grids for H and He will be reduced by one unit

# of grid points (after initial pruning)     ...  55394 (   0.0 sec)
# of grid points (after weights+screening)   ...  51290 (   0.1 sec)
nearest neighbour list constructed           ...    0.0 sec
Grid point re-assignment to atoms done       ...    0.0 sec
Grid point division into batches done        ...    0.2 sec
Reduced shell lists constructed in    0.3 sec

Total number of grid points                  ...    51290
Total number of batches                      ...      809
Average number of points per batch           ...       63
Average number of grid points per atom       ...     3945
Average number of shells per batch           ...    34.78 (82.82%)
Average number of basis functions per batch  ...    61.78 (83.49%)
Average number of large shells per batch     ...    29.35 (84.39%)
Average number of large basis fcns per batch ...    51.60 (83.53%)
Maximum spatial batch extension              ...  16.92, 18.04, 21.17 au
Average spatial batch extension              ...   2.60,  2.65,  2.58 au

Final grid set up in    0.7 sec
Final integration                            ... done (   4.6 sec)
Change in XC energy                          ...    -0.000190320
Integrated number of electrons               ...    33.000048775
Previous integrated no of electrons          ...    32.999265242
Total Energy       :         -157.52578546 Eh           -4286.49454 eV
  Last Energy change         ...    1.3074e-12  Tolerance :   1.0000e-09
  Last MAX-Density change    ...    6.6652e-08  Tolerance :   1.0000e-08
             **** THE GBW FILE WAS UPDATED (orca1.gbw) ****
             **** DENSITY FILE WAS UPDATED (orca1.scfp) ****
             **** ENERGY FILE WAS UPDATED (orca1.en.tmp) ****
             **** THE GBW FILE WAS UPDATED (orca1.gbw) ****
             **** DENSITY FILE WAS UPDATED (orca1.scfp) ****
Total SCF time: 0 days 0 hours 1 min 31 sec 


-------------------------------------------------------------------------------
                          DFT DISPERSION CORRECTION                            
                                                                               
                              DFTD3 V3.1  Rev 1                                
                          USING Becke-Johnson damping                          
-------------------------------------------------------------------------------
-------------------------   ----------------
Dispersion correction           -0.014104253
-------------------------   ----------------


-------------------------   --------------------
FINAL SINGLE POINT ENERGY      -157.539889710752
-------------------------   --------------------

------------------------------------------------------------------------------
                         ORCA SCF GRADIENT CALCULATION
------------------------------------------------------------------------------

Gradient of the Kohn-Sham DFT energy:
Kohn-Sham wavefunction type      ... UKS
Hartree-Fock exchange scaling    ...    0.200
Number of operators              ...    2
Number of atoms                  ...   13
Basis set dimensions             ...   74
Integral neglect threshold       ... 1.0e-12
Integral primitive cutoff        ... 1.0e-14

Nuclear repulsion gradient       ... done
One Electron Gradient            ... done
Pre-screening matrix             ... done
Starting the two electron gradient:
Two electron gradient done
Exchange-correlation gradient    ... done
Dispersion correction            ... done

------------------
CARTESIAN GRADIENT
------------------

   1   C   :   -0.002771818   -0.002040831    0.046868892
   2   C   :    0.005088503   -0.000017049   -0.011958663
   3   C   :   -0.002599165   -0.003245597   -0.014879084
   4   C   :   -0.006099005    0.010291922   -0.031477672
   5   H   :   -0.002871371    0.000842462    0.000378435
   6   H   :   -0.001902838   -0.000593377    0.001492194
   7   H   :    0.000026028   -0.000762410   -0.001050092
   8   H   :    0.001027396   -0.003232563   -0.000198590
   9   H   :   -0.000464770    0.006951989    0.002243370
  10   H   :    0.003004018    0.004440439   -0.004274453
  11   H   :    0.001927933   -0.006120439    0.003721460
  12   H   :    0.006340723   -0.003407116    0.005999822
  13   H   :   -0.000705632   -0.003107428    0.003134381

Difference to translation invariance:
           :    0.0000000000    0.0000000000    0.0000000000

Norm of the cartesian gradient     ...    0.0635768748
RMS gradient                       ...    0.0101804476
MAX gradient                       ...    0.0468688920

-------
TIMINGS
-------

Total SCF gradient time            ...        4.209 sec

One electron gradient       ....       0.030 sec  (  0.7%)
Prescreening matrices       ....       0.028 sec  (  0.7%)
Two electron gradient       ....       1.321 sec  ( 31.4%)
XC gradient                 ....       2.662 sec  ( 63.2%)
------------------------------------------------------------------------------
                         ORCA GEOMETRY RELAXATION STEP
------------------------------------------------------------------------------

Reading the OPT-File                    .... done
Getting information on internals        .... done
Copying old internal coords+grads       .... done
Making the new internal coordinates     .... (new redundants).... done
Validating the new internal coordinates .... (new redundants).... done
Calculating the B-matrix                .... done
Calculating the G,G- and P matrices     .... done
Transforming gradient to internals      .... done
Projecting the internal gradient        .... done
Number of atoms                         ....  13
Number of internal coordinates          ....  51
Current Energy                          ....  -157.539889711 Eh
Current gradient norm                   ....     0.063576875 Eh/bohr
Maximum allowed component of the step   ....  0.300
Current trust radius                    ....  0.300
Updating the Hessian (BFGS)             .... done
Forming the augmented Hessian           .... done
Diagonalizing the augmented Hessian     .... done
Last element of RFO vector              ....  0.933931872
Lowest eigenvalues of augmented Hessian:
 -0.010351872  0.011252690  0.012306675  0.012720472  0.054989661
Length of the computed step             ....  0.382737831
Warning: the length of the step is outside the trust region - taking restricted step instead
The input lambda is                     ....    -0.010352
   iter:   1  x=   -0.021847  g=    4.914312 f(x)=     0.056488
   iter:   2  x=   -0.026725  g=    2.808987 f(x)=     0.013704
   iter:   3  x=   -0.027302  g=    2.291657 f(x)=     0.001321
   iter:   4  x=   -0.027308  g=    2.239472 f(x)=     0.000015
   iter:   5  x=   -0.027308  g=    2.238870 f(x)=     0.000000
   iter:   6  x=   -0.027308  g=    2.238870 f(x)=     0.000000
The output lambda is                    ....    -0.027308 (6 iterations)
The final length of the internal step   ....  0.300000000
Converting the step to cartesian space:
 Initial RMS(Int)=    0.0420084025
Transforming coordinates:
 Iter   0:  RMS(Cart)=    0.0478084788 RMS(Int)=    0.8721550617
 Iter   1:  RMS(Cart)=    0.0029355586 RMS(Int)=    0.0017455745
 Iter   2:  RMS(Cart)=    0.0001255924 RMS(Int)=    0.0000738124
 Iter   3:  RMS(Cart)=    0.0000037990 RMS(Int)=    0.0000030584
 Iter   4:  RMS(Cart)=    0.0000002670 RMS(Int)=    0.0000001930
 Iter   5:  RMS(Cart)=    0.0000000142 RMS(Int)=    0.0000000098
done
Storing new coordinates                 .... done

                                .--------------------.
          ----------------------|Geometry convergence|-------------------------
          Item                value                   Tolerance       Converged
          ---------------------------------------------------------------------
          Energy change      -0.0127727632            0.0000050000      NO
          RMS gradient        0.0045418568            0.0001000000      NO
          MAX gradient        0.0116037994            0.0003000000      NO
          RMS step            0.0420084025            0.0020000000      NO
          MAX step            0.0778771382            0.0040000000      NO
          ........................................................
          Max(Bonds)      0.0087      Max(Angles)    3.14
          Max(Dihed)        4.46      Max(Improp)    0.00
          ---------------------------------------------------------------------

The optimization has not yet converged - more geometry cycles are needed


    ---------------------------------------------------------------------------
                         Redundant Internal Coordinates
                            (Angstroem and degrees)

        Definition                    Value    dE/dq     Step     New-Value
    ----------------------------------------------------------------------------
     1. B(C   1,C   0)                1.5249  0.001457 -0.0035    1.5215   
     2. B(C   2,C   0)                1.5289  0.001182 -0.0031    1.5258   
     3. B(C   3,C   0)                1.5308  0.004081 -0.0087    1.5221   
     4. B(H   4,C   1)                1.1056 -0.000285  0.0005    1.1061   
     5. B(H   5,C   1)                1.1043 -0.000905  0.0023    1.1065   
     6. B(H   6,C   1)                1.1083 -0.000893  0.0017    1.1100   
     7. B(H   7,C   2)                1.1053 -0.001146  0.0023    1.1076   
     8. B(H   8,C   2)                1.1077 -0.001197  0.0021    1.1099   
     9. B(H   9,C   2)                1.1061  0.001040 -0.0016    1.1045   
    10. B(H  10,C   3)                1.1050 -0.000650  0.0013    1.1063   
    11. B(H  11,C   3)                1.1086  0.002521 -0.0053    1.1033   
    12. B(H  12,C   3)                1.1044 -0.003091  0.0064    1.1108   
    13. A(C   1,C   0,C   3)          113.06 -0.001177    2.11    115.17   
    14. A(C   2,C   0,C   3)          111.39 -0.004894    3.14    114.53   
    15. A(C   1,C   0,C   2)          115.13 -0.002124    2.17    117.30   
    16. A(H   4,C   1,H   5)          109.39  0.003115   -0.80    108.59   
    17. A(H   5,C   1,H   6)          106.04  0.000005    0.07    106.11   
    18. A(H   4,C   1,H   6)          106.79  0.001423   -0.37    106.42   
    19. A(C   0,C   1,H   4)          110.05 -0.003735    0.90    110.95   
    20. A(C   0,C   1,H   5)          111.11 -0.002230    0.54    111.66   
    21. A(C   0,C   1,H   6)          113.27  0.001817   -0.44    112.83   
    22. A(H   7,C   2,H   9)          106.97 -0.001390    0.61    107.58   
    23. A(C   0,C   2,H   9)          110.28 -0.005222    1.22    111.50   
    24. A(H   7,C   2,H   8)          106.37  0.001027   -0.14    106.23   
    25. A(C   0,C   2,H   8)          109.37 -0.008131    1.91    111.28   
    26. A(H   8,C   2,H   9)          110.75  0.008445   -2.47    108.29   
    27. A(C   0,C   2,H   7)          113.02  0.006005   -1.34    111.68   
    28. A(H  11,C   3,H  12)          111.58  0.007286   -2.11    109.47   
    29. A(H  10,C   3,H  12)          109.24  0.004802   -1.21    108.03   
    30. A(C   0,C   3,H  12)          109.75  0.000763   -0.21    109.54   
    31. A(H  10,C   3,H  11)          110.15  0.007560   -1.50    108.65   
    32. A(C   0,C   3,H  11)          108.02 -0.011604    2.95    110.97   
    33. A(C   0,C   3,H  10)          108.04 -0.009529    2.53    110.57   
    34. D(H   6,C   1,C   0,C   2)   -113.11 -0.004900    3.75   -109.36   
    35. D(H   4,C   1,C   0,C   2)    127.45 -0.005302    3.87    131.32   
    36. D(H   6,C   1,C   0,C   3)    117.28  0.005331   -3.89    113.39   
    37. D(H   5,C   1,C   0,C   2)      6.13 -0.005234    3.93     10.07   
    38. D(H   4,C   1,C   0,C   3)     -2.16  0.004929   -3.77     -5.93   
    39. D(H   5,C   1,C   0,C   3)   -123.48  0.004997   -3.70   -127.18   
    40. D(H   7,C   2,C   0,C   1)   -122.51  0.004285   -3.25   -125.76   
    41. D(H   9,C   2,C   0,C   3)    127.60 -0.005410    4.42    132.01   
    42. D(H   9,C   2,C   0,C   1)     -2.83  0.002868   -2.49     -5.32   
    43. D(H   8,C   2,C   0,C   3)   -110.37 -0.003590    3.34   -107.03   
    44. D(H   8,C   2,C   0,C   1)    119.20  0.004688   -3.56    115.64   
    45. D(H   7,C   2,C   0,C   3)      7.92 -0.003993    3.65     11.57   
    46. D(H  11,C   3,C   0,C   1)    -48.16 -0.005320    3.35    -44.81   
    47. D(H  10,C   3,C   0,C   2)     61.22  0.005934   -4.46     56.75   
    48. D(H  10,C   3,C   0,C   1)   -167.30 -0.002599    2.39   -164.90   
    49. D(H  12,C   3,C   0,C   2)    -57.80  0.005338   -4.37    -62.18   
    50. D(H  12,C   3,C   0,C   1)     73.69 -0.003195    2.48     76.17   
    51. D(H  11,C   3,C   0,C   2)   -179.65  0.003212   -3.51   -183.16   
    ----------------------------------------------------------------------------

         *************************************************************
         *                GEOMETRY OPTIMIZATION CYCLE   3            *
         *************************************************************
---------------------------------
CARTESIAN COORDINATES (ANGSTROEM)
---------------------------------
  C     -0.032484   -0.010264    0.257430
  C      1.485462    0.021691    0.158990
  C     -0.723726   -1.296894   -0.183940
  C     -0.725548    1.260381   -0.213754
  H      1.829626    0.943624   -0.345990
  H      1.877067   -0.851608   -0.396373
  H      1.981944    0.003536    1.151584
  H     -1.501709   -1.102545   -0.948017
  H     -1.239668   -1.789175    0.666526
[...]
 C      0   0   0     0.000000000000     0.00000000     0.00000000
 C      1   0   0     2.834215387542     0.00000000     0.00000000
 C      1   2   0     2.829324070522   120.73474704     0.00000000
 C      1   2   3     2.837592394074   119.33263959   164.72752440
 H      2   1   3     2.092229301625   111.70328641   146.70215479
 H      2   1   3     2.088053008054   112.31705651    25.21587073
 H      2   1   3     2.107261483855   110.74549020   265.26319798
 H      3   1   2     2.088609902058   110.68293505   193.43452523
 H      3   1   2     2.107612435085   111.97061214    74.16569338
 H      3   1   2     2.092577754208   112.37860380   314.97795603
 H      4   1   2     2.102181217997   112.91173931   252.54415797
 H      4   1   2     2.084053298420   112.93622670    14.52569859
 H      4   1   2     2.099496787099   109.85886393   134.97023628


Diagonalization of the overlap matrix:
Smallest eigenvalue                        ... 3.859e-03
Time for diagonalization                   ...    0.001 sec
Threshold for overlap eigenvalues          ... 1.000e-08
Number of eigenvalues below threshold      ... 0
Time for construction of square roots      ...    0.166 sec
Total time needed                          ...    0.167 sec

-------------------
DFT GRID GENERATION
-------------------

General Integration Accuracy     IntAcc      ...  4.340
Radial Grid Type                 RadialGrid  ... Gauss-Chebyshev
Angular Grid (max. acc.)         AngularGrid ... Lebedev-110
Angular grid pruning method      GridPruning ... 3 (G Style)
Weight generation scheme         WeightScheme... Becke
Basis function cutoff            BFCut       ...    1.0000e-12
Integration weight cutoff        WCut        ...    1.0000e-14
Grids for H and He will be reduced by one unit

# of grid points (after initial pruning)     ...  13770 (   0.0 sec)
# of grid points (after weights+screening)   ...  12941 (   0.0 sec)
nearest neighbour list constructed           ...    0.0 sec
Grid point re-assignment to atoms done       ...    0.0 sec
Grid point division into batches done        ...    0.0 sec
Reduced shell lists constructed in    0.1 sec

Total number of grid points                  ...    12941
Total number of batches                      ...      210
Average number of points per batch           ...       61
Average number of grid points per atom       ...      995
Average number of shells per batch           ...    37.02 (88.14%)
Average number of basis functions per batch  ...    65.98 (89.16%)
Average number of large shells per batch     ...    31.72 (85.69%)
Average number of large basis fcns per batch ...    55.98 (84.84%)
Maximum spatial batch extension              ...  20.74, 19.12, 21.37 au
Average spatial batch extension              ...   4.27,  4.10,  3.98 au

Time for grid setup =    0.248 sec

--------------
SCF ITERATIONS
--------------
ITER       Energy         Delta-E        Max-DP      RMS-DP      [F,P]     Damp
               ***  Starting incremental Fock matrix formation  ***
  0   -157.5423567687   0.000000000000 0.00022213  0.00000950  0.0016975 0.7000
  1   -157.5423609393  -0.000004170642 0.00020985  0.00000940  0.0013466 0.7000
                               ***Turning on DIIS***
  2   -157.5423642817  -0.000003342391 0.00054858  0.00002607  0.0010135 0.0000
  3   -157.5423729052  -0.000008623439 0.00018810  0.00000925  0.0001399 0.0000
  4   -157.5423730706  -0.000000165395 0.00003672  0.00000128  0.0000107 0.0000
  5   -157.5423730726  -0.000000002003 0.00000912  0.00000036  0.0000063 0.0000
  6   -157.5423730729  -0.000000000350 0.00000430  0.00000015  0.0000023 0.0000
  7   -157.5423730730  -0.000000000074 0.00000268  0.00000008  0.0000007 0.0000
  8   -157.5423730730  -0.000000000007 0.00000027  0.00000001  0.0000001 0.0000
  9   -157.5423730730  -0.000000000011 0.00000004  0.00000000  0.0000001 0.0000
                 **** Energy Check signals convergence ****

 Fermi smearing  (ALPHA): E(HOMO(Eh)) = -0.340565 MUE = -0.055518 gap=   6.012 eV
 Fermi smearing   (BETA): E(HOMO(Eh)) = -0.335619 MUE = -0.178425 gap=   8.459 eV

N_FOD(alpha) =  0.000000
 N_FOD(beta) =  0.000000
       N_FOD =  0.000000

               *****************************************************
               *                     SUCCESS                       *
               *           SCF CONVERGED AFTER  10 CYCLES          *
               *****************************************************

Setting up the final grid:

General Integration Accuracy     IntAcc      ...  4.670
Radial Grid Type                 RadialGrid  ... Gauss-Chebyshev
Angular Grid (max. acc.)         AngularGrid ... Lebedev-302
Angular grid pruning method      GridPruning ... 3 (G Style)
Weight generation scheme         WeightScheme... Becke
Basis function cutoff            BFCut       ...    1.0000e-12
Integration weight cutoff        WCut        ...    1.0000e-14
Grids for H and He will be reduced by one unit

# of grid points (after initial pruning)     ...  55394 (   0.0 sec)
# of grid points (after weights+screening)   ...  51400 (   0.1 sec)
nearest neighbour list constructed           ...    0.0 sec
Grid point re-assignment to atoms done       ...    0.0 sec
Grid point division into batches done        ...    0.2 sec
Reduced shell lists constructed in    0.3 sec

Total number of grid points                  ...    51400
Total number of batches                      ...      810
Average number of points per batch           ...       63
Average number of grid points per atom       ...     3954
Average number of shells per batch           ...    34.63 (82.45%)
Average number of basis functions per batch  ...    61.50 (83.11%)
Average number of large shells per batch     ...    29.04 (83.87%)
Average number of large basis fcns per batch ...    50.77 (82.55%)
Maximum spatial batch extension              ...  18.89, 19.02, 15.64 au
Average spatial batch extension              ...   2.68,  2.62,  2.55 au

Final grid set up in    0.9 sec
Final integration                            ... done (   2.9 sec)
Change in XC energy                          ...     0.000270233
Integrated number of electrons               ...    33.000030494
Previous integrated no of electrons          ...    33.001099808
Total Energy       :         -157.54210284 Eh           -4286.93856 eV
  Last Energy change         ...    1.9043e-12  Tolerance :   1.0000e-09
  Last MAX-Density change    ...    2.1201e-08  Tolerance :   1.0000e-08
             **** THE GBW FILE WAS UPDATED (orca1.gbw) ****
             **** DENSITY FILE WAS UPDATED (orca1.scfp) ****
             **** ENERGY FILE WAS UPDATED (orca1.en.tmp) ****
             **** THE GBW FILE WAS UPDATED (orca1.gbw) ****
             **** DENSITY FILE WAS UPDATED (orca1.scfp) ****
Total SCF time: 0 days 0 hours 0 min 46 sec 


-------------------------------------------------------------------------------
                          DFT DISPERSION CORRECTION                            
                                                                               
                              DFTD3 V3.1  Rev 1                                
                          USING Becke-Johnson damping                          
-------------------------------------------------------------------------------
-------------------------   ----------------
Dispersion correction           -0.013819265
-------------------------   ----------------


-------------------------   --------------------
FINAL SINGLE POINT ENERGY      -157.555922105459
-------------------------   --------------------

------------------------------------------------------------------------------
                         ORCA SCF GRADIENT CALCULATION
------------------------------------------------------------------------------

Gradient of the Kohn-Sham DFT energy:
Kohn-Sham wavefunction type      ... UKS
Hartree-Fock exchange scaling    ...    0.200
Number of operators              ...    2
Number of atoms                  ...   13
Basis set dimensions             ...   74
Integral neglect threshold       ... 1.0e-12
Integral primitive cutoff        ... 1.0e-14

Nuclear repulsion gradient       ... done
One Electron Gradient            ... done
Pre-screening matrix             ... done
Starting the two electron gradient:
Two electron gradient done
Exchange-correlation gradient    ... done
Dispersion correction            ... done

------------------
CARTESIAN GRADIENT
------------------

   1   C   :   -0.001901744   -0.002733909   -0.000244200
   2   C   :    0.004153982    0.000546961   -0.000408440
   3   C   :   -0.001472580   -0.001645657   -0.000831400
   4   C   :    0.000833448    0.003727048    0.004206256
   5   H   :   -0.000017923   -0.000464215   -0.000450511
   6   H   :    0.000187583    0.000469232   -0.000192520
   7   H   :   -0.002139727    0.000328755   -0.000234793
   8   H   :    0.000538441    0.001749207    0.000097532
   9   H   :    0.000880037   -0.000130233   -0.000027569
  10   H   :   -0.000208939   -0.000367863    0.000406781
  11   H   :   -0.000130637    0.000555956   -0.001481608
  12   H   :   -0.001429548   -0.000193899    0.000055506
  13   H   :    0.000707607   -0.001841384   -0.000895035

Difference to translation invariance:
           :    0.0000000000    0.0000000000   -0.0000000000

Norm of the cartesian gradient     ...    0.0092717216
RMS gradient                       ...    0.0014846637
MAX gradient                       ...    0.0042062560

-------
TIMINGS
-------

Total SCF gradient time            ...        4.115 sec

One electron gradient       ....       0.027 sec  (  0.6%)
Prescreening matrices       ....       0.026 sec  (  0.6%)
Two electron gradient       ....       1.308 sec  ( 31.8%)
XC gradient                 ....       2.609 sec  ( 63.4%)
------------------------------------------------------------------------------
                         ORCA GEOMETRY RELAXATION STEP
------------------------------------------------------------------------------

Reading the OPT-File                    .... done
Getting information on internals        .... done
Copying old internal coords+grads       .... done
Making the new internal coordinates     .... (new redundants).... done
Validating the new internal coordinates .... (new redundants).... done
Calculating the B-matrix                .... done
Calculating the G,G- and P matrices     .... done
Transforming gradient to internals      .... done
Projecting the internal gradient        .... done
Number of atoms                         ....  13
Number of internal coordinates          ....  51
Current Energy                          ....  -157.555922105 Eh
Current gradient norm                   ....     0.009271722 Eh/bohr
Maximum allowed component of the step   ....  0.300
Current trust radius                    ....  0.300
Resetting Hessian after 50 BFGS Update Steps....
Build internal Hessian                  .... (Almloef) done
Updating Hessian with the last 5 steps  .... done
Forming the augmented Hessian           .... done
Diagonalizing the augmented Hessian     .... done
Last element of RFO vector              ....  0.992837230
Lowest eigenvalues of augmented Hessian:
 -0.000323661  0.001982619  0.012389674  0.012942081  0.014326003
Length of the computed step             ....  0.120336770
The final length of the internal step   ....  0.120336770
Converting the step to cartesian space:
 Initial RMS(Int)=    0.0168505182
Transforming coordinates:
 Iter   0:  RMS(Cart)=    0.0255734563 RMS(Int)=    0.8775152735
 Iter   1:  RMS(Cart)=    0.0004265525 RMS(Int)=    0.0003657032
 Iter   2:  RMS(Cart)=    0.0000143203 RMS(Int)=    0.0000088122
 Iter   3:  RMS(Cart)=    0.0000004879 RMS(Int)=    0.0000004348
 Iter   4:  RMS(Cart)=    0.0000000166 RMS(Int)=    0.0000000107
done
Storing new coordinates                 .... done

                                .--------------------.
          ----------------------|Geometry convergence|-------------------------
          Item                value                   Tolerance       Converged
          ---------------------------------------------------------------------
          Energy change      -0.0000024675            0.0000050000      YES
          RMS gradient        0.0011853141            0.0001000000      NO
          MAX gradient        0.0039584756            0.0003000000      NO
          RMS step            0.0168505182            0.0020000000      NO
          MAX step            0.0475537221            0.0040000000      NO
          ........................................................
          Max(Bonds)      0.0023      Max(Angles)    0.80
          Max(Dihed)        2.72      Max(Improp)    0.00
          ---------------------------------------------------------------------

The optimization has not yet converged - more geometry cycles are needed


    ---------------------------------------------------------------------------
                         Redundant Internal Coordinates
                            (Angstroem and degrees)

        Definition                    Value    dE/dq     Step     New-Value
    ----------------------------------------------------------------------------
     1. B(C   1,C   0)                1.4998  0.001708 -0.0023    1.4975   
     2. B(C   2,C   0)                1.4972  0.000500 -0.0010    1.4962   
     3. B(C   3,C   0)                1.5016  0.001915 -0.0018    1.4998   
     4. B(H   4,C   1)                1.1072 -0.000149  0.0003    1.1074   
     5. B(H   5,C   1)                1.1050 -0.000282  0.0004    1.1054   
     6. B(H   6,C   1)                1.1151 -0.000305  0.0005    1.1156   
     7. B(H   7,C   2)                1.1052 -0.000281  0.0005    1.1058   
     8. B(H   8,C   2)                1.1153 -0.000193  0.0004    1.1157   
     9. B(H   9,C   2)                1.1073 -0.000035 -0.0000    1.1073   
    10. B(H  10,C   3)                1.1124 -0.000972  0.0016    1.1140   
    11. B(H  11,C   3)                1.1028 -0.000978  0.0013    1.1041   
    12. B(H  12,C   3)                1.1110  0.000259 -0.0004    1.1106   
    13. A(C   1,C   0,C   3)          119.33 -0.001133   -0.09    119.24   
    14. A(C   2,C   0,C   3)          118.20 -0.001244   -0.05    118.15   
    15. A(C   1,C   0,C   2)          120.73  0.002430   -0.13    120.61   
    16. A(H   4,C   1,H   5)          107.97 -0.000397    0.03    108.00   
    17. A(H   5,C   1,H   6)          107.30  0.001234   -0.30    107.00   
    18. A(H   4,C   1,H   6)          106.52  0.001276   -0.19    106.33   
    19. A(C   0,C   1,H   4)          111.70  0.000207   -0.10    111.60   
    20. A(C   0,C   1,H   5)          112.32  0.000959   -0.07    112.25   
    21. A(C   0,C   1,H   6)          110.75 -0.003166    0.60    111.35   
    22. A(H   7,C   2,H   9)          108.55  0.000925   -0.25    108.30   
    23. A(C   0,C   2,H   9)          112.38  0.001162   -0.12    112.26   
    24. A(H   7,C   2,H   8)          106.98  0.001283   -0.26    106.72   
    25. A(C   0,C   2,H   8)          111.97 -0.000177    0.11    112.08   
    26. A(H   8,C   2,H   9)          106.01 -0.000483    0.08    106.09   
    27. A(C   0,C   2,H   7)          110.68 -0.002564    0.41    111.09   
    28. A(H  11,C   3,H  12)          107.85  0.000662    0.01    107.86   
    29. A(H  10,C   3,H  12)          105.59  0.000369   -0.02    105.57   
    30. A(C   0,C   3,H  12)          109.86 -0.003958    0.80    110.66   
    31. A(H  10,C   3,H  11)          107.31 -0.000918    0.09    107.40   
    32. A(C   0,C   3,H  11)          112.94  0.001993   -0.36    112.58   
    33. A(C   0,C   3,H  10)          112.91  0.001781   -0.50    112.41   
    34. D(H   6,C   1,C   0,C   2)    -94.74 -0.000312    0.70    -94.04   
    35. D(H   4,C   1,C   0,C   2)    146.70  0.000039    0.61    147.31   
    36. D(H   6,C   1,C   0,C   3)     69.99 -0.000281   -0.48     69.51   
    37. D(H   5,C   1,C   0,C   2)     25.22 -0.000284    0.69     25.90   
    38. D(H   4,C   1,C   0,C   3)    -48.57  0.000070   -0.58    -49.15   
    39. D(H   5,C   1,C   0,C   3)   -170.06 -0.000253   -0.50   -170.55   
    40. D(H   7,C   2,C   0,C   1)   -166.57 -0.000311    1.16   -165.40   
    41. D(H   9,C   2,C   0,C   3)    150.08 -0.000185    2.22    152.30   
    42. D(H   9,C   2,C   0,C   1)    -45.02 -0.000146    1.04    -43.98   
    43. D(H   8,C   2,C   0,C   3)    -90.73 -0.000125    2.31    -88.42   
    44. D(H   8,C   2,C   0,C   1)     74.17 -0.000086    1.14     75.31   
    45. D(H   7,C   2,C   0,C   3)     28.54 -0.000350    2.34     30.87   
    46. D(H  11,C   3,C   0,C   1)     14.53  0.000140    2.18     16.71   
    47. D(H  10,C   3,C   0,C   2)     57.66 -0.000928    1.56     59.22   
    48. D(H  10,C   3,C   0,C   1)   -107.46 -0.001520    2.72   -104.73   
    49. D(H  12,C   3,C   0,C   2)    -59.92  0.000123    1.35    -58.56   
    50. D(H  12,C   3,C   0,C   1)    134.97 -0.000468    2.52    137.49   
    51. D(H  11,C   3,C   0,C   2)    179.64  0.000732    1.02    180.65   
    ----------------------------------------------------------------------------




    ----------------------------------------------------------------------------
                                  WARNING !!!
       The optimization did not converge but reached the maximum number of
       optimization cycles.
       Please check your results very carefully.
    ----------------------------------------------------------------------------



                            ***************************************
                            *     ORCA property calculations      *
                            ***************************************

                                    ---------------------
                                    Active property flags
                                    ---------------------
   (+) Dipole Moment


------------------------------------------------------------------------------
                       ORCA ELECTRIC PROPERTIES CALCULATION
------------------------------------------------------------------------------

Dipole Moment Calculation                       ... on
Quadrupole Moment Calculation                   ... off
Polarizability Calculation                      ... off
GBWName                                         ... orca1.gbw
Electron density file                           ... orca1.scfp
The origin for moment calculation is the CENTER OF MASS  = ( 0.060089, -0.016853 -0.282548)

-------------
DIPOLE MOMENT
-------------
                                X             Y             Z
Electronic contribution:      0.16758      -0.00265      -0.39904
Nuclear contribution   :     -0.18943       0.00568       0.47168
                        -----------------------------------------
Total Dipole Moment    :     -0.02185       0.00303       0.07264
                        -----------------------------------------
Magnitude (a.u.)       :      0.07591
Magnitude (Debye)      :      0.19296



--------------------
Rotational spectrum 
--------------------
 
Rotational constants in cm-1:     0.266908     0.260588     0.142828 
Rotational constants in MHz :  8001.705588  7812.242342  4281.874632 

 Dipole components along the rotational axes: 
x,y,z [a.u.] :    -0.003124    -0.007274     0.075500 
x,y,z [Debye]:    -0.007941    -0.018489     0.191905 

 

Timings for individual modules:

Sum of individual times         ...    10097.104 sec (= 168.285 min)
GTO integral calculation        ...      244.404 sec (=   4.073 min)   2.4 %
SCF iterations                  ...     9476.797 sec (= 157.947 min)  93.9 %
SCF Gradient evaluation         ...      263.182 sec (=   4.386 min)   2.6 %
Geometry relaxation             ...      112.721 sec (=   1.879 min)   1.1 %
                             ****ORCA TERMINATED NORMALLY****
TOTAL RUN TIME: 0 days 2 hours 53 minutes 59 seconds 83 msec
