
                                 *****************
                                 * O   R   C   A *
                                 *****************

           --- An Ab Initio, DFT and Semiempirical electronic structure package ---

                  #######################################################
                  #                        -***-                        #
                  #          Department of theory and spectroscopy      #
                  #               Directorship: Frank Neese             #
                  #        Max Planck Institute fuer Kohlenforschung    #
                  #                Kaiser Wilhelm Platz 1               #
                  #                 D-45470 Muelheim/Ruhr               #
                  #                      Germany                        #
                  #                                                     #
                  #                  All rights reserved                #
                  #                        -***-                        #
                  #######################################################


                         Program Version 4.2.1 -  RELEASE  -


 With contributions from (in alphabetic order):
   Daniel Aravena         : Magnetic Suceptibility
   Michael Atanasov       : Ab Initio Ligand Field Theory (pilot matlab implementation)
   Alexander A. Auer      : GIAO ZORA, VPT2
   Ute Becker             : Parallelization
   Giovanni Bistoni       : ED, misc. LED, open-shell LED, HFLD
   Martin Brehm           : Molecular dynamics
   Dmytro Bykov           : SCF Hessian
   Vijay G. Chilkuri      : MRCI spin determinant printing, contributions to CSF-ICE
   Dipayan Datta          : RHF DLPNO-CCSD density
   Achintya Kumar Dutta   : EOM-CC, STEOM-CC
   Dmitry Ganyushin       : Spin-Orbit,Spin-Spin,Magnetic field MRCI
   Miquel Garcia          : C-PCM Hessian, Gaussian charge scheme
   Yang Guo               : DLPNO-NEVPT2, CIM, IAO-localization
   Andreas Hansen         : Spin unrestricted coupled pair/coupled cluster methods
   Benjamin Helmich-Paris : CASSCF linear response (MC-RPA)
   Lee Huntington         : MR-EOM, pCC
   Robert Izsak           : Overlap fitted RIJCOSX, COSX-SCS-MP3, EOM
   Christian Kollmar      : KDIIS, OOCD, Brueckner-CCSD(T), CCSD density
   Simone Kossmann        : Meta GGA functionals, TD-DFT gradient, OOMP2, MP2 Hessian
   Martin Krupicka        : AUTO-CI
   Lucas Lang             : DCDCAS
   Dagmar Lenk            : GEPOL surface, SMD
   Dimitrios Liakos       : Extrapolation schemes; Compound Job, initial MDCI parallelization
   Dimitrios Manganas     : Further ROCIS development; embedding schemes
   Dimitrios Pantazis     : SARC Basis sets
   Taras Petrenko         : DFT Hessian,TD-DFT gradient, ASA, ECA, R-Raman, ABS, FL, XAS/XES, NRVS
   Peter Pinski           : DLPNO-MP2, DLPNO-MP2 Gradient
   Christoph Reimann      : Effective Core Potentials
   Marius Retegan         : Local ZFS, SOC
   Christoph Riplinger    : Optimizer, TS searches, QM/MM, DLPNO-CCSD(T), (RO)-DLPNO pert. Triples
   Tobias Risthaus        : Range-separated hybrids, TD-DFT gradient, RPA, STAB
   Michael Roemelt        : Original ROCIS implementation
   Masaaki Saitow         : Open-shell DLPNO-CCSD energy and density
   Barbara Sandhoefer     : DKH picture change effects
   Avijit Sen             : IP-ROCIS
   Kantharuban Sivalingam : CASSCF convergence, NEVPT2, FIC-MRCI
   Bernardo de Souza      : ESD, SOC TD-DFT
   Georgi Stoychev        : AutoAux, RI-MP2 NMR
   Willem Van den Heuvel  : Paramagnetic NMR
   Boris Wezisla          : Elementary symmetry handling
   Frank Wennmohs         : Technical directorship


 We gratefully acknowledge several colleagues who have allowed us to
 interface, adapt or use parts of their codes:
   Stefan Grimme, W. Hujo, H. Kruse,             : VdW corrections, initial TS optimization,
                  C. Bannwarth                     DFT functionals, gCP, sTDA/sTD-DF
   Ed Valeev, F. Pavosevic, A. Kumar             : LibInt (2-el integral package), F12 methods
   Garnet Chan, S. Sharma, J. Yang, R. Olivares  : DMRG
   Ulf Ekstrom                                   : XCFun DFT Library
   Mihaly Kallay                                 : mrcc  (arbitrary order and MRCC methods)
   Andreas Klamt, Michael Diedenhofen            : otool_cosmo (COSMO solvation model)
   Jiri Pittner, Ondrej Demel                    : Mk-CCSD
   Frank Weinhold                                : gennbo (NPA and NBO analysis)
   Christopher J. Cramer and Donald G. Truhlar   : smd solvation model
   Lars Goerigk                                  : TD-DFT with DH, B97 family of functionals
   V. Asgeirsson, H. Jonsson                     : NEB implementation
   FAccTs GmbH                                   : IRC, NEB, NEB-TS, Multilevel, MM, QM/MM, CI optimization
   S Lehtola, MJT Oliveira, MAL Marques          : LibXC Library


 Your calculation uses the libint2 library for the computation of 2-el integrals
 For citations please refer to: http://libint.valeyev.net

 Your ORCA version has been built with support for libXC version: 4.2.3
 For citations please refer to: https://tddft.org/programs/libxc/

 This ORCA versions uses:
   CBLAS   interface :  Fast vector & matrix operations
   LAPACKE interface :  Fast linear algebra routines
   SCALAPACK package :  Parallel linear algebra routines


Your calculation utilizes the atom-pairwise dispersion correction
with the Becke-Johnson damping scheme (D3BJ)
Cite in your paper:
S.Grimme, S.Ehrlich, L.Goerigk, J Comput Chem, (2011), 32, 1456–1465 
S.Grimme, J.Antony, S.Ehrlich and H.Krieg, J.Chem.Phys., 132, (2010), 154104 
   

----- Orbital basis set information -----
Your calculation utilizes the basis: def2-SV(P)
   F. Weigend and R. Ahlrichs, Phys. Chem. Chem. Phys. 7, 3297 (2005).

----- AuxJ basis set information -----
Your calculation utilizes the auxiliary basis: def2/J
   F. Weigend, Phys. Chem. Chem. Phys. 8, 1057 (2006).

================================================================================
                                        WARNINGS
                       Please study these warnings very carefully!
================================================================================


WARNING: Geometry Optimization
  ===> : Switching off AutoStart
         For restart on a previous wavefunction, please use MOREAD

INFO   : the flag for use of LIBINT has been found!

================================================================================
                                       INPUT FILE
================================================================================
NAME = orca6.inp
|  1> ! UKS B3LYP def2-SV(P) def2/J D3BJ Opt
|  2> %scf Convergence VeryTight
|  3> SmearTemp 2000
|  4> maxiter 500
|  5> end
|  6> *xyz 0 2
|  7> C 0.065938 -0.016435 -0.305895
|  8> C -1.209786 -0.820465 -0.109793
|  9> C 1.250622 -0.635312 0.370333
| 10> C -0.123539 1.43293 0.046074
| 11> H -1.421246 -1.014355 0.958372
| 12> H -2.02012 -0.216218 -0.592406
| 13> H -1.157502 -1.762487 -0.712309
| 14> H 1.417615 -1.64138 -0.061949
| 15> H 2.143556 -0.033596 0.06474
| 16> H 1.216795 -0.612873 1.467722
| 17> H -0.950459 1.821362 -0.575084
| 18> H 0.806183 1.962775 -0.282903
| 19> H -0.28748 1.591521 1.138588
| 20> *
| 21> 
| 22>                          ****END OF INPUT****
================================================================================

                       *****************************
                       * Geometry Optimization Run *
                       *****************************

Geometry optimization settings:
Update method            Update   .... BFGS
Choice of coordinates    CoordSys .... Z-matrix Internals
Initial Hessian          InHess   .... Almoef's Model

Convergence Tolerances:
Energy Change            TolE     ....  5.0000e-06 Eh
Max. Gradient            TolMAXG  ....  3.0000e-04 Eh/bohr
RMS Gradient             TolRMSG  ....  1.0000e-04 Eh/bohr
Max. Displacement        TolMAXD  ....  4.0000e-03 bohr
RMS Displacement         TolRMSD  ....  2.0000e-03 bohr
Strict Convergence                ....  False
------------------------------------------------------------------------------
                        ORCA OPTIMIZATION COORDINATE SETUP
------------------------------------------------------------------------------

The optimization will be done in new redundant internal coordinates
Making redundant internal coordinates   ...  (new redundants) done
Evaluating the initial hessian          ...  (Almloef) done
Evaluating the coordinates              ...  done
Calculating the B-matrix                .... done
Calculating the G-matrix                .... done
Diagonalizing the G-matrix              .... done
The first mode is                       ....   18
The number of degrees of freedom        ....   33

    -----------------------------------------------------------------
                    Redundant Internal Coordinates


    -----------------------------------------------------------------
         Definition                    Initial Value    Approx d2E/dq
    -----------------------------------------------------------------
      1. B(C   1,C   0)                  1.5207         0.386622   
      2. B(C   2,C   0)                  1.4979         0.420297   
      3. B(C   3,C   0)                  1.5035         0.411807   
      4. B(H   4,C   1)                  1.1060         0.339516   
      5. B(H   5,C   1)                  1.1201         0.322379   
      6. B(H   6,C   1)                  1.1194         0.323177   
      7. B(H   7,C   2)                  1.1077         0.337470   
      8. B(H   8,C   2)                  1.1193         0.323381   
      9. B(H   9,C   2)                  1.0981         0.349492   
     10. B(H  10,C   3)                  1.1048         0.341084   
     11. B(H  11,C   3)                  1.1195         0.323081   
     12. B(H  12,C   3)                  1.1161         0.327211   
     13. A(C   1,C   0,C   3)          111.9497         0.371657   
     14. A(C   2,C   0,C   3)          113.0961         0.377051   
     15. A(C   1,C   0,C   2)          112.7572         0.372965   
     16. A(H   4,C   1,H   5)          111.8615         0.283242   
     17. A(H   5,C   1,H   6)          104.8232         0.281086   
     18. A(H   4,C   1,H   6)          112.4089         0.283351   
     19. A(C   0,C   1,H   4)          112.1869         0.323016   
     20. A(C   0,C   1,H   5)          105.4336         0.320289   
     21. A(C   0,C   1,H   6)          109.6544         0.320418   
     22. A(H   7,C   2,H   9)          114.4060         0.286554   
     23. A(C   0,C   2,H   9)          114.7293         0.329050   
     24. A(H   7,C   2,H   8)          105.1565         0.283113   
     25. A(C   0,C   2,H   8)          106.5937         0.324868   
     26. A(H   8,C   2,H   9)          106.6444         0.284657   
     27. A(C   0,C   2,H   7)          108.5609         0.327155   
     28. A(H  11,C   3,H  12)          110.0223         0.281721   
     29. A(H  10,C   3,H  12)          112.9841         0.284101   
     30. A(C   0,C   3,H  12)          112.6225         0.324407   
     31. A(H  10,C   3,H  11)          106.8566         0.283540   
     32. A(C   0,C   3,H  11)          106.4268         0.323731   
     33. A(C   0,C   3,H  10)          107.5565         0.326630   
     34. D(H   6,C   1,C   0,C   2)    -71.7652         0.011131   
     35. D(H   4,C   1,C   0,C   2)     53.8842         0.011131   
     36. D(H   6,C   1,C   0,C   3)    159.3549         0.011131   
     37. D(H   5,C   1,C   0,C   2)    175.8745         0.011131   
     38. D(H   4,C   1,C   0,C   3)    -74.9957         0.011131   
     39. D(H   5,C   1,C   0,C   3)     46.9946         0.011131   
     40. D(H   7,C   2,C   0,C   1)     60.7935         0.013062   
     41. D(H   9,C   2,C   0,C   3)     59.6925         0.013062   
     42. D(H   9,C   2,C   0,C   1)    -68.5915         0.013062   
     43. D(H   8,C   2,C   0,C   3)    -58.1019         0.013062   
     44. D(H   8,C   2,C   0,C   1)    173.6141         0.013062   
     45. D(H   7,C   2,C   0,C   3)   -170.9226         0.013062   
     46. D(H  11,C   3,C   0,C   1)   -171.1772         0.012556   
     47. D(H  10,C   3,C   0,C   2)    174.3490         0.012556   
     48. D(H  10,C   3,C   0,C   1)    -56.9494         0.012556   
     49. D(H  12,C   3,C   0,C   2)    -60.5140         0.012556   
     50. D(H  12,C   3,C   0,C   1)     68.1876         0.012556   
     51. D(H  11,C   3,C   0,C   2)     60.1212         0.012556   
    -----------------------------------------------------------------

Number of atoms                         .... 13
Number of degrees of freedom            .... 51

         *************************************************************
         *                GEOMETRY OPTIMIZATION CYCLE   1            *
         *************************************************************
---------------------------------
CARTESIAN COORDINATES (ANGSTROEM)
---------------------------------
  C      0.065938   -0.016435   -0.305895
  C     -1.209786   -0.820465   -0.109793
  C      1.250622   -0.635312    0.370333
  C     -0.123539    1.432930    0.046074
  H     -1.421246   -1.014355    0.958372
  H     -2.020120   -0.216218   -0.592406
  H     -1.157502   -1.762487   -0.712309
  H      1.417615   -1.641380   -0.061949
  H      2.143556   -0.033596    0.064740
  H      1.216795   -0.612873    1.467722
  H     -0.950459    1.821362   -0.575084
  H      0.806183    1.962775   -0.282903
  H     -0.287480    1.591521    1.138588

----------------------------
CARTESIAN COORDINATES (A.U.)
----------------------------
  NO LB      ZA    FRAG     MASS         X           Y           Z
   0 C     6.0000    0    12.011    0.124605   -0.031058   -0.578058
   1 C     6.0000    0    12.011   -2.286164   -1.550454   -0.207479
   2 C     6.0000    0    12.011    2.363333   -1.200566    0.699828
   3 C     6.0000    0    12.011   -0.233455    2.707845    0.087067
   4 H     1.0000    0     1.008   -2.685766   -1.916853    1.811061
   5 H     1.0000    0     1.008   -3.817474   -0.408593   -1.119485
   6 H     1.0000    0     1.008   -2.187362   -3.330618   -1.346069
   7 H     1.0000    0     1.008    2.678904   -3.101759   -0.117067
   8 H     1.0000    0     1.008    4.050734   -0.063487    0.122341
   9 H     1.0000    0     1.008    2.299409   -1.158162    2.773593
  10 H     1.0000    0     1.008   -1.796107    3.441875   -1.086751
  11 H     1.0000    0     1.008    1.523465    3.709107   -0.534609
  12 H     1.0000    0     1.008   -0.543258    3.007539    2.151619

--------------------------------
INTERNAL COORDINATES (ANGSTROEM)
--------------------------------
 C      0   0   0     0.000000000000     0.00000000     0.00000000
 C      1   0   0     1.520655108655     0.00000000     0.00000000
 C      1   2   0     1.497921636458   112.75724640     0.00000000
 C      1   2   3     1.503476841762   111.94970912   231.12010518
 H      2   1   3     1.106022210864   112.18694007    53.88423220
 H      2   1   3     1.120120947190   105.43356814   175.87451700
 H      2   1   3     1.119448344229   109.65438475   288.23482976
 H      3   1   2     1.107667463726   108.56094960    60.79345095
 H      3   1   2     1.119276710497   106.59372280   173.61412120
 H      3   1   2     1.098139513892   114.72925944   291.40847764
 H      4   1   2     1.104768467141   107.55654931   303.05059426
 H      4   1   2     1.119528734708   106.42679578   188.82279227
 H      4   1   2     1.116071053723   112.62248189    68.18761224

---------------------------
INTERNAL COORDINATES (A.U.)
---------------------------
 C      0   0   0     0.000000000000     0.00000000     0.00000000
 C      1   0   0     2.873621699507     0.00000000     0.00000000
 C      1   2   0     2.830661662981   112.75724640     0.00000000
 C      1   2   3     2.841159479623   111.94970912   231.12010518
 H      2   1   3     2.090079076567   112.18694007    53.88423220
 H      2   1   3     2.116721827058   105.43356814   175.87451700
 H      2   1   3     2.115450791664   109.65438475   288.23482976
 H      3   1   2     2.093188153897   108.56094960    60.79345095
 H      3   1   2     2.115126450916   106.59372280   173.61412120
 H      3   1   2     2.075182938093   114.72925944   291.40847764
 H      4   1   2     2.087709844288   107.55654931   303.05059426
 H      4   1   2     2.115602707654   106.42679578   188.82279227
 H      4   1   2     2.109068637533   112.62248189    68.18761224

---------------------
BASIS SET INFORMATION
---------------------
There are 2 groups of distinct atoms

 Group   1 Type C   : 7s4p1d contracted to 3s2p1d pattern {511/31/1}
 Group   2 Type H   : 4s contracted to 2s pattern {31}

Atom   0C    basis set group =>   1
Atom   1C    basis set group =>   1
Atom   2C    basis set group =>   1
Atom   3C    basis set group =>   1
Atom   4H    basis set group =>   2
Atom   5H    basis set group =>   2
Atom   6H    basis set group =>   2
Atom   7H    basis set group =>   2
Atom   8H    basis set group =>   2
Atom   9H    basis set group =>   2
Atom  10H    basis set group =>   2
Atom  11H    basis set group =>   2
Atom  12H    basis set group =>   2
---------------------------------
AUXILIARY/J BASIS SET INFORMATION
---------------------------------
There are 2 groups of distinct atoms

 Group   1 Type C   : 12s5p4d2f1g contracted to 6s4p3d1f1g pattern {711111/2111/211/2/1}
 Group   2 Type H   : 5s2p1d contracted to 3s1p1d pattern {311/2/1}

Atom   0C    basis set group =>   1
Atom   1C    basis set group =>   1
Atom   2C    basis set group =>   1
Atom   3C    basis set group =>   1
Atom   4H    basis set group =>   2
Atom   5H    basis set group =>   2
Atom   6H    basis set group =>   2
Atom   7H    basis set group =>   2
Atom   8H    basis set group =>   2
Atom   9H    basis set group =>   2
Atom  10H    basis set group =>   2
Atom  11H    basis set group =>   2
Atom  12H    basis set group =>   2
------------------------------------------------------------------------------
                           ORCA GTO INTEGRAL CALCULATION
------------------------------------------------------------------------------

                         BASIS SET STATISTICS AND STARTUP INFO

 # of primitive gaussian shells          ...   84
 # of primitive gaussian functions       ...  132
 # of contracted shells                  ...   42
 # of contracted basis functions         ...   74
 Highest angular momentum                ...    2
 Maximum contraction depth               ...    5
 Integral package used                   ... LIBINT
 Integral threshhold            Thresh   ...  1.000e-12
 Primitive cut-off              TCut     ...  1.000e-14


------------------------------ INTEGRAL EVALUATION ----------------------------


 * One electron integrals 
 Pre-screening matrix                    ... done
 Shell pair data                         ... done (   0.000 sec)

-------------------------------------------------------------------------------
                                 ORCA SCF
-------------------------------------------------------------------------------

------------
SCF SETTINGS
------------
Hamiltonian:
 Density Functional     Method          .... DFT(GTOs)
 Exchange Functional    Exchange        .... B88
   X-Alpha parameter    XAlpha          ....  0.666667
   Becke's b parameter  XBeta           ....  0.004200
 Correlation Functional Correlation     .... LYP
 LDA part of GGA corr.  LDAOpt          .... VWN-5
 Gradients option       PostSCFGGA      .... off
 Hybrid DFT is turned on
   Fraction HF Exchange ScalHFX         ....  0.200000
   Scaling of DF-GGA-X  ScalDFX         ....  0.720000
   Scaling of DF-GGA-C  ScalDFC         ....  0.810000
   Scaling of DF-LDA-C  ScalLDAC        ....  1.000000
   Perturbative correction              ....  0.000000
   Density functional embedding theory  .... OFF
   NL short-range parameter             ....  4.800000


General Settings:
 Integral files         IntName         .... orca6
 Hartree-Fock type      HFTyp           .... UHF
 Total Charge           Charge          ....    0
 Multiplicity           Mult            ....    2
 Number of Electrons    NEL             ....   33
 Basis Dimension        Dim             ....   74
 Nuclear Repulsion      ENuc            ....    125.8456611969 Eh

Convergence Acceleration:
 DIIS                   CNVDIIS         .... on
   Start iteration      DIISMaxIt       ....    12
   Startup error        DIISStart       ....  0.200000
   # of expansion vecs  DIISMaxEq       ....     5
   Bias factor          DIISBfac        ....   1.050
   Max. coefficient     DIISMaxC        ....  10.000
 Newton-Raphson         CNVNR           .... off
 SOSCF                  CNVSOSCF        .... off
 Level Shifting         CNVShift        .... on
   Level shift para.    LevelShift      ....    0.2500
   Turn off err/grad.   ShiftErr        ....    0.0010
 Zerner damping         CNVZerner       .... off
 Static damping         CNVDamp         .... on
   Fraction old density DampFac         ....    0.7000
   Max. Damping (<1)    DampMax         ....    0.9800
   Min. Damping (>=0)   DampMin         ....    0.0000
   Turn off err/grad.   DampErr         ....    0.1000
 Fernandez-Rico         CNVRico         .... off

SCF Procedure:
 Maximum # iterations   MaxIter         ....   500
 SCF integral mode      SCFMode         .... Direct
   Integral package                     .... LIBINT
 Reset frequency        DirectResetFreq ....    20
 Integral Threshold     Thresh          ....  1.000e-12 Eh
 Primitive CutOff       TCut            ....  1.000e-14 Eh

Convergence Tolerance:
 Convergence Check Mode ConvCheckMode   .... Total+1el-Energy
 Convergence forced     ConvForced      .... 0
 Energy Change          TolE            ....  1.000e-09 Eh
 1-El. energy change                    ....  1.000e-06 Eh
 DIIS Error             TolErr          ....  1.000e-08


Diagonalization of the overlap matrix:
Smallest eigenvalue                        ... 2.855e-03
Time for diagonalization                   ...    0.001 sec
Threshold for overlap eigenvalues          ... 1.000e-08
Number of eigenvalues below threshold      ... 0
Time for construction of square roots      ...    0.356 sec
Total time needed                          ...    0.357 sec

-------------------
DFT GRID GENERATION
-------------------

General Integration Accuracy     IntAcc      ...  4.340
Radial Grid Type                 RadialGrid  ... Gauss-Chebyshev
Angular Grid (max. acc.)         AngularGrid ... Lebedev-110
Angular grid pruning method      GridPruning ... 3 (G Style)
Weight generation scheme         WeightScheme... Becke
Basis function cutoff            BFCut       ...    1.0000e-12
Integration weight cutoff        WCut        ...    1.0000e-14
Grids for H and He will be reduced by one unit

# of grid points (after initial pruning)     ...  13770 (   0.0 sec)
# of grid points (after weights+screening)   ...  12920 (   0.0 sec)
nearest neighbour list constructed           ...    0.0 sec
Grid point re-assignment to atoms done       ...    0.0 sec
Grid point division into batches done        ...    0.0 sec
Reduced shell lists constructed in    0.1 sec

Total number of grid points                  ...    12920
Total number of batches                      ...      209
Average number of points per batch           ...       61
Average number of grid points per atom       ...      994
Average number of shells per batch           ...    37.22 (88.63%)
Average number of basis functions per batch  ...    66.34 (89.65%)
Average number of large shells per batch     ...    32.47 (87.23%)
Average number of large basis fcns per batch ...    57.40 (86.52%)
Maximum spatial batch extension              ...  19.89, 20.66, 22.44 au
Average spatial batch extension              ...   4.16,  4.07,  4.13 au

Time for grid setup =    1.608 sec

------------------------------
INITIAL GUESS: MODEL POTENTIAL
------------------------------
Loading Hartree-Fock densities                     ... done
Calculating cut-offs                               ... done
Setting up the integral package                    ... done
Initializing the effective Hamiltonian             ... done
Starting the Coulomb interaction                   ... done (   0.0 sec)
Reading the grid                                   ... done
Mapping shells                                     ... done
Starting the XC term evaluation                    ... done (   0.1 sec)
  promolecular density results
     # of electrons  =     32.998245575
     EX              =    -23.178601094
     EC              =     -1.030295374
     EX+EC           =    -24.208896468
Transforming the Hamiltonian                       ... done (   0.0 sec)
Diagonalizing the Hamiltonian                      ... done (   0.0 sec)
Back transforming the eigenvectors                 ... done (   0.0 sec)
Now organizing SCF variables                       ... done
                      ------------------
                      INITIAL GUESS DONE (   1.9 sec)
                      ------------------
--------------
SCF ITERATIONS
--------------
ITER       Energy         Delta-E        Max-DP      RMS-DP      [F,P]     Damp
               ***  Starting incremental Fock matrix formation  ***
  0   -157.3664198070   0.000000000000 0.04299842  0.00223408  0.1706557 0.7000
  1   -157.4410756897  -0.074655882725 0.02748561  0.00163030  0.0892740 0.7000
                               ***Turning on DIIS***
  2   -157.4713652489  -0.030289559200 0.04767606  0.00269781  0.0338173 0.0000
  3   -157.5117289506  -0.040363701702 0.01774405  0.00112589  0.0486006 0.0000
  4   -157.5253848346  -0.013655883971 0.00414970  0.00034138  0.0106525 0.0000
  5   -157.5261454036  -0.000760569073 0.00181176  0.00013187  0.0021466 0.0000
  6   -157.5262038098  -0.000058406208 0.00153329  0.00008792  0.0004761 0.0000
  7   -157.5262128600  -0.000009050199 0.00030888  0.00001214  0.0002239 0.0000
  8   -157.5262132365  -0.000000376459 0.00016093  0.00000451  0.0001747 0.0000
  9   -157.5262133669  -0.000000130372 0.00003610  0.00000172  0.0000135 0.0000
 10   -157.5262133801  -0.000000013223 0.00001202  0.00000059  0.0000037 0.0000
 11   -157.5262133820  -0.000000001927 0.00000606  0.00000030  0.0000010 0.0000
                 **** Energy Check signals convergence ****

 Fermi smearing  (ALPHA): E(HOMO(Eh)) = -0.322352 MUE = -0.074052 gap=   6.942 eV
 Fermi smearing   (BETA): E(HOMO(Eh)) = -0.317007 MUE = -0.182821 gap=   7.240 eV

N_FOD(alpha) =  0.000000
 N_FOD(beta) =  0.000000
       N_FOD =  0.000000

               *****************************************************
               *                     SUCCESS                       *
               *           SCF CONVERGED AFTER  12 CYCLES          *
               *****************************************************

Setting up the final grid:

General Integration Accuracy     IntAcc      ...  4.670
Radial Grid Type                 RadialGrid  ... Gauss-Chebyshev
Angular Grid (max. acc.)         AngularGrid ... Lebedev-302
Angular grid pruning method      GridPruning ... 3 (G Style)
Weight generation scheme         WeightScheme... Becke
Basis function cutoff            BFCut       ...    1.0000e-12
Integration weight cutoff        WCut        ...    1.0000e-14
Grids for H and He will be reduced by one unit

# of grid points (after initial pruning)     ...  55394 (   0.0 sec)
# of grid points (after weights+screening)   ...  51291 (   0.1 sec)
nearest neighbour list constructed           ...    0.0 sec
Grid point re-assignment to atoms done       ...    0.0 sec
Grid point division into batches done        ...    0.2 sec
Reduced shell lists constructed in    0.3 sec

Total number of grid points                  ...    51291
Total number of batches                      ...      809
Average number of points per batch           ...       63
Average number of grid points per atom       ...     3945
Average number of shells per batch           ...    34.82 (82.90%)
Average number of basis functions per batch  ...    61.89 (83.64%)
Average number of large shells per batch     ...    29.66 (85.19%)
Average number of large basis fcns per batch ...    52.13 (84.23%)
Maximum spatial batch extension              ...  17.72, 19.96, 16.78 au
Average spatial batch extension              ...   2.62,  2.63,  2.59 au

Final grid set up in    1.8 sec
Final integration                            ... done (   5.3 sec)
Change in XC energy                          ...    -0.000154699
Integrated number of electrons               ...    33.000096183
Previous integrated no of electrons          ...    33.000007509

----------------
TOTAL SCF ENERGY
----------------

Total Energy       :         -157.52636808 Eh           -4286.51040 eV

Components:
Nuclear Repulsion  :          125.84566120 Eh            3424.43454 eV
Electronic Energy  :         -283.37202928 Eh           -7710.94493 eV
One Electron Energy:         -459.29588040 Eh          -12498.07630 eV
Two Electron Energy:          175.92385112 Eh            4787.13136 eV

Virial components:
Potential Energy   :         -313.32133682 Eh           -8525.90702 eV
Kinetic Energy     :          155.79496873 Eh            4239.39663 eV
Virial Ratio       :            2.01111332


DFT components:
N(Alpha)           :       17.000056838013 electrons
N(Beta)            :       16.000039345076 electrons
N(Total)           :       33.000096183089 electrons
E(X)               :      -18.871667060424 Eh       
E(C)               :       -1.220744636404 Eh       
E(XC)              :      -20.092411696828 Eh       
DFET-embed. en.    :        0.000000000000 Eh       

---------------
SCF CONVERGENCE
---------------

  Last Energy change         ...   -4.6938e-10  Tolerance :   1.0000e-09
  Last MAX-Density change    ...    1.7021e-06  Tolerance :   1.0000e-08
  Last RMS-Density change    ...    9.8441e-08  Tolerance :   1.0000e-09
  Last DIIS Error            ...    6.9574e-07  Tolerance :   1.0000e-08

             **** THE GBW FILE WAS UPDATED (orca6.gbw) ****
             **** DENSITY FILE WAS UPDATED (orca6.scfp) ****
             **** ENERGY FILE WAS UPDATED (orca6.en.tmp) ****
             **** THE GBW FILE WAS UPDATED (orca6.gbw) ****
             **** DENSITY FILE WAS UPDATED (orca6.scfp) ****
----------------
ORBITAL ENERGIES
----------------
                 SPIN UP ORBITALS
  NO   OCC          E(Eh)            E(eV) 
   0   1.0000     -10.190070      -277.2859 
   1   1.0000     -10.169690      -276.7313 
   2   1.0000     -10.169574      -276.7282 
   3   1.0000     -10.167181      -276.6631 
   4   1.0000      -0.795852       -21.6562 
   5   1.0000      -0.675336       -18.3768 
   6   1.0000      -0.671796       -18.2805 
   7   1.0000      -0.519669       -14.1409 
   8   1.0000      -0.453811       -12.3488 
   9   1.0000      -0.433982       -11.8092 
  10   1.0000      -0.428075       -11.6485 
  11   1.0000      -0.396168       -10.7803 
  12   1.0000      -0.390388       -10.6230 
  13   1.0000      -0.352388        -9.5890 
  14   1.0000      -0.327208        -8.9038 
  15   1.0000      -0.322352        -8.7716 
  16   1.0000      -0.201603        -5.4859 
  17   0.0000       0.053499         1.4558 
  18   0.0000       0.105532         2.8717 
  19   0.0000       0.106889         2.9086 
  20   0.0000       0.118776         3.2320 
  21   0.0000       0.120993         3.2924 
  22   0.0000       0.127020         3.4564 
  23   0.0000       0.160499         4.3674 
  24   0.0000       0.163144         4.4394 
  25   0.0000       0.189382         5.1534 
  26   0.0000       0.209824         5.7096 
  27   0.0000       0.247108         6.7242 
  28   0.0000       0.257796         7.0150 
  29   0.0000       0.398366        10.8401 
  30   0.0000       0.410632        11.1739 
  31   0.0000       0.450929        12.2704 
  32   0.0000       0.458353        12.4724 
  33   0.0000       0.463074        12.6009 
  34   0.0000       0.509501        13.8642 
  35   0.0000       0.611300        16.6343 
  36   0.0000       0.617946        16.8152 
  37   0.0000       0.618930        16.8419 
  38   0.0000       0.647216        17.6116 
  39   0.0000       0.651591        17.7307 
  40   0.0000       0.660129        17.9630 
  41   0.0000       0.678389        18.4599 
  42   0.0000       0.688469        18.7342 
  43   0.0000       0.703859        19.1530 
  44   0.0000       0.709140        19.2967 
  45   0.0000       0.721257        19.6264 
  46   0.0000       0.723042        19.6750 
  47   0.0000       0.748362        20.3640 
  48   0.0000       0.753116        20.4933 
  49   0.0000       0.757254        20.6059 
  50   0.0000       0.770097        20.9554 
  51   0.0000       0.838863        22.8266 
  52   0.0000       1.037413        28.2294 
  53   0.0000       1.069359        29.0987 
  54   0.0000       1.412026        38.4232 
  55   0.0000       1.428089        38.8603 
  56   0.0000       1.725194        46.9449 
  57   0.0000       1.747017        47.5388 
  58   0.0000       1.762680        47.9650 
  59   0.0000       1.775832        48.3229 
  60   0.0000       1.928323        52.4723 
  61   0.0000       1.958401        53.2908 
  62   0.0000       2.040805        55.5331 
  63   0.0000       2.049179        55.7610 
  64   0.0000       2.066906        56.2434 
  65   0.0000       2.119127        57.6644 
  66   0.0000       2.134972        58.0956 
  67   0.0000       2.141387        58.2701 
  68   0.0000       2.153679        58.6046 
  69   0.0000       2.420935        65.8770 
  70   0.0000       2.455123        66.8073 
  71   0.0000       2.470858        67.2355 
  72   0.0000       2.697370        73.3992 
  73   0.0000       2.702135        73.5288 

                 SPIN DOWN ORBITALS
  NO   OCC          E(Eh)            E(eV) 
   0   1.0000     -10.175263      -276.8830 
   1   1.0000     -10.170133      -276.7434 
   2   1.0000     -10.170079      -276.7419 
   3   1.0000     -10.167704      -276.6773 
   4   1.0000      -0.780425       -21.2365 
   5   1.0000      -0.672879       -18.3100 
   6   1.0000      -0.669296       -18.2125 
   7   1.0000      -0.501775       -13.6540 
   8   1.0000      -0.437950       -11.9172 
   9   1.0000      -0.429090       -11.6761 
  10   1.0000      -0.423782       -11.5317 
  11   1.0000      -0.390987       -10.6393 
  12   1.0000      -0.385994       -10.5034 
  13   1.0000      -0.351243        -9.5578 
  14   1.0000      -0.322155        -8.7663 
  15   1.0000      -0.317007        -8.6262 
  16   0.0000      -0.050954        -1.3865 
  17   0.0000       0.055110         1.4996 
  18   0.0000       0.106383         2.8948 
  19   0.0000       0.107788         2.9331 
  20   0.0000       0.122230         3.3260 
  21   0.0000       0.124704         3.3934 
  22   0.0000       0.130495         3.5510 
  23   0.0000       0.163523         4.4497 
  24   0.0000       0.165655         4.5077 
  25   0.0000       0.189966         5.1692 
  26   0.0000       0.219253         5.9662 
  27   0.0000       0.257894         7.0177 
  28   0.0000       0.267894         7.2898 
  29   0.0000       0.400364        10.8945 
  30   0.0000       0.413164        11.2428 
  31   0.0000       0.458884        12.4869 
  32   0.0000       0.466419        12.6919 
  33   0.0000       0.482911        13.1407 
  34   0.0000       0.543965        14.8020 
  35   0.0000       0.619410        16.8550 
  36   0.0000       0.622407        16.9366 
  37   0.0000       0.631334        17.1795 
  38   0.0000       0.648743        17.6532 
  39   0.0000       0.659275        17.9398 
  40   0.0000       0.670374        18.2418 
  41   0.0000       0.684139        18.6164 
  42   0.0000       0.692840        18.8531 
  43   0.0000       0.706559        19.2265 
  44   0.0000       0.712902        19.3991 
  45   0.0000       0.726265        19.7627 
  46   0.0000       0.727655        19.8005 
  47   0.0000       0.749857        20.4047 
  48   0.0000       0.755911        20.5694 
  49   0.0000       0.759110        20.6564 
  50   0.0000       0.780773        21.2459 
  51   0.0000       0.845729        23.0135 
  52   0.0000       1.039845        28.2956 
  53   0.0000       1.072066        29.1724 
  54   0.0000       1.430731        38.9322 
  55   0.0000       1.446084        39.3499 
  56   0.0000       1.745384        47.4943 
  57   0.0000       1.759046        47.8661 
  58   0.0000       1.768816        48.1319 
  59   0.0000       1.780047        48.4375 
  60   0.0000       1.946126        52.9568 
  61   0.0000       1.975532        53.7570 
  62   0.0000       2.043526        55.6072 
  63   0.0000       2.054001        55.8922 
  64   0.0000       2.078407        56.5563 
  65   0.0000       2.120192        57.6934 
  66   0.0000       2.136466        58.1362 
  67   0.0000       2.142554        58.3019 
  68   0.0000       2.156998        58.6949 
  69   0.0000       2.449790        66.6622 
  70   0.0000       2.477496        67.4161 
  71   0.0000       2.492708        67.8300 
  72   0.0000       2.709972        73.7421 
  73   0.0000       2.714514        73.8657 

                    ********************************
                    * MULLIKEN POPULATION ANALYSIS *
                    ********************************

------------------------------------------
FOD BASED MULLIKEN REDUCED ORBITAL CHARGES
------------------------------------------
  0 C s       :     0.000000  s :     0.000000
      pz      :     0.000000  p :     0.000000
      px      :     0.000000
      py      :     0.000000
      dz2     :     0.000000  d :     0.000000
      dxz     :     0.000000
      dyz     :     0.000000
      dx2y2   :     0.000000
      dxy     :     0.000000
  1 C s       :    -0.000000  s :    -0.000000
      pz      :     0.000000  p :     0.000000
      px      :     0.000000
      py      :     0.000000
      dz2     :     0.000000  d :     0.000000
      dxz     :     0.000000
      dyz     :     0.000000
      dx2y2   :     0.000000
      dxy     :     0.000000
  2 C s       :    -0.000000  s :    -0.000000
      pz      :     0.000000  p :     0.000000
      px      :     0.000000
      py      :     0.000000
      dz2     :     0.000000  d :     0.000000
      dxz     :     0.000000
      dyz     :     0.000000
      dx2y2   :     0.000000
      dxy     :     0.000000
  3 C s       :    -0.000000  s :    -0.000000
      pz      :     0.000000  p :     0.000000
      px      :     0.000000
      py      :     0.000000
      dz2     :     0.000000  d :     0.000000
      dxz     :     0.000000
      dyz     :     0.000000
      dx2y2   :     0.000000
      dxy     :     0.000000
  4 H s       :     0.000000  s :     0.000000
  5 H s       :     0.000000  s :     0.000000
  6 H s       :     0.000000  s :     0.000000
  7 H s       :     0.000000  s :     0.000000
  8 H s       :     0.000000  s :     0.000000
  9 H s       :     0.000000  s :     0.000000
 10 H s       :     0.000000  s :     0.000000
 11 H s       :     0.000000  s :     0.000000
 12 H s       :     0.000000  s :     0.000000


                     *******************************
                     * LOEWDIN POPULATION ANALYSIS *
                     *******************************

-------------------------------------------
LOEWDIN ATOMIC CHARGES AND SPIN POPULATIONS
-------------------------------------------
   0 C :   -0.073589    0.840863
   1 C :   -0.316356   -0.010297
   2 C :   -0.319371   -0.011543
   3 C :   -0.315556   -0.011853
   4 H :    0.117245    0.045305
   5 H :    0.109366    0.002935
   6 H :    0.113721    0.012490
   7 H :    0.114579    0.007020
   8 H :    0.110111    0.009318
   9 H :    0.117452    0.048338
  10 H :    0.113418    0.006306
  11 H :    0.112123    0.009484
  12 H :    0.116856    0.051634

----------------------------------------------------
LOEWDIN REDUCED ORBITAL CHARGES AND SPIN POPULATIONS
----------------------------------------------------
CHARGE
  0 C s       :     2.933908  s :     2.933908
      pz      :     0.963950  p :     3.043059
      px      :     1.036789
      py      :     1.042319
      dz2     :     0.010269  d :     0.096622
      dxz     :     0.014420
      dyz     :     0.012959
      dx2y2   :     0.029121
      dxy     :     0.029853
  1 C s       :     2.962210  s :     2.962210
      pz      :     1.096344  p :     3.279834
      px      :     1.084449
      py      :     1.099041
      dz2     :     0.016872  d :     0.074312
      dxz     :     0.012077
      dyz     :     0.014784
      dx2y2   :     0.013620
      dxy     :     0.016958
  2 C s       :     2.951845  s :     2.951845
      pz      :     1.095181  p :     3.290376
      px      :     1.090265
      py      :     1.104930
      dz2     :     0.024863  d :     0.077149
      dxz     :     0.010598
      dyz     :     0.009048
      dx2y2   :     0.015600
      dxy     :     0.017041
  3 C s       :     2.957565  s :     2.957565
      pz      :     1.094779  p :     3.281709
      px      :     1.106192
      py      :     1.080738
      dz2     :     0.019470  d :     0.076282
      dxz     :     0.011662
      dyz     :     0.012786
      dx2y2   :     0.014426
      dxy     :     0.017938
  4 H s       :     0.882755  s :     0.882755
  5 H s       :     0.890634  s :     0.890634
  6 H s       :     0.886279  s :     0.886279
  7 H s       :     0.885421  s :     0.885421
  8 H s       :     0.889889  s :     0.889889
  9 H s       :     0.882548  s :     0.882548
 10 H s       :     0.886582  s :     0.886582
 11 H s       :     0.887877  s :     0.887877
 12 H s       :     0.883144  s :     0.883144

SPIN
  0 C s       :     0.082442  s :     0.082442
      pz      :     0.697023  p :     0.760668
      px      :     0.045732
      py      :     0.017913
      dz2     :     0.000505  d :    -0.002248
      dxz     :    -0.000808
      dyz     :    -0.000720
      dx2y2   :    -0.000567
      dxy     :    -0.000657
  1 C s       :    -0.001805  s :    -0.001805
      pz      :    -0.008478  p :    -0.020486
      px      :    -0.007165
      py      :    -0.004843
      dz2     :     0.002432  d :     0.011994
      dxz     :     0.005496
      dyz     :     0.003044
      dx2y2   :     0.000491
      dxy     :     0.000530
  2 C s       :    -0.002080  s :    -0.002080
      pz      :    -0.009862  p :    -0.022681
      px      :    -0.009299
      py      :    -0.003520
      dz2     :     0.009027  d :     0.013218
      dxz     :     0.002274
      dyz     :     0.000902
      dx2y2   :     0.000479
      dxy     :     0.000535
  3 C s       :    -0.001941  s :    -0.001941
      pz      :    -0.009751  p :    -0.022873
      px      :    -0.002430
      py      :    -0.010692
      dz2     :     0.004475  d :     0.012960
      dxz     :     0.000639
      dyz     :     0.006735
      dx2y2   :     0.000616
      dxy     :     0.000496
  4 H s       :     0.045305  s :     0.045305
  5 H s       :     0.002935  s :     0.002935
  6 H s       :     0.012490  s :     0.012490
  7 H s       :     0.007020  s :     0.007020
  8 H s       :     0.009318  s :     0.009318
  9 H s       :     0.048338  s :     0.048338
 10 H s       :     0.006306  s :     0.006306
 11 H s       :     0.009484  s :     0.009484
 12 H s       :     0.051634  s :     0.051634


                      *****************************
                      * MAYER POPULATION ANALYSIS *
                      *****************************

  NA   - Mulliken gross atomic population
  ZA   - Total nuclear charge
  QA   - Mulliken gross atomic charge
  VA   - Mayer's total valence
  BVA  - Mayer's bonded valence
  FA   - Mayer's free valence

  ATOM       NA         ZA         QA         VA         BVA        FA
  0 C      6.1480     6.0000    -0.1480     4.1370     3.4007     0.7363
  1 C      6.2328     6.0000    -0.2328     3.9074     3.9050     0.0024
  2 C      6.2253     6.0000    -0.2253     3.9136     3.9111     0.0025
  3 C      6.2351     6.0000    -0.2351     3.9124     3.9099     0.0026
  4 H      0.9028     1.0000     0.0972     0.9597     0.9564     0.0033
  5 H      0.9128     1.0000     0.0872     0.9618     0.9618     0.0000
  6 H      0.9045     1.0000     0.0955     0.9560     0.9558     0.0002
  7 H      0.9069     1.0000     0.0931     0.9585     0.9584     0.0001
  8 H      0.9154     1.0000     0.0846     0.9589     0.9588     0.0001
  9 H      0.9024     1.0000     0.0976     0.9592     0.9554     0.0037
 10 H      0.9047     1.0000     0.0953     0.9601     0.9600     0.0000
 11 H      0.9076     1.0000     0.0924     0.9584     0.9583     0.0001
 12 H      0.9017     1.0000     0.0983     0.9582     0.9540     0.0042

  Mayer bond orders larger than 0.100000
B(  0-C ,  1-C ) :   1.0871 B(  0-C ,  2-C ) :   1.1003 B(  0-C ,  3-C ) :   1.0916 
B(  1-C ,  4-H ) :   0.9323 B(  1-C ,  5-H ) :   0.9594 B(  1-C ,  6-H ) :   0.9530 
B(  2-C ,  7-H ) :   0.9550 B(  2-C ,  8-H ) :   0.9558 B(  2-C ,  9-H ) :   0.9285 
B(  3-C , 10-H ) :   0.9538 B(  3-C , 11-H ) :   0.9552 B(  3-C , 12-H ) :   0.9292 


-------
TIMINGS
-------

Total SCF time: 0 days 0 hours 1 min 46 sec 

Total time                  ....     106.552 sec
Sum of individual times     ....      91.259 sec  ( 85.6%)

Fock matrix formation       ....      79.862 sec  ( 75.0%)
  XC integration            ....      33.369 sec  ( 41.8% of F)
    Basis function eval.    ....       0.829 sec  (  2.5% of XC)
    Density eval.           ....       0.578 sec  (  1.7% of XC)
    XC-Functional eval.     ....       0.364 sec  (  1.1% of XC)
    XC-Potential eval.      ....       0.843 sec  (  2.5% of XC)
Diagonalization             ....       0.037 sec  (  0.0%)
Density matrix formation    ....       5.367 sec  (  5.0%)
Population analysis         ....       0.914 sec  (  0.9%)
Initial guess               ....       0.256 sec  (  0.2%)
Orbital Transformation      ....       0.000 sec  (  0.0%)
Orbital Orthonormalization  ....       0.000 sec  (  0.0%)
DIIS solution               ....       1.459 sec  (  1.4%)
Grid generation             ....       3.364 sec  (  3.2%)


-------------------------------------------------------------------------------
                          DFT DISPERSION CORRECTION                            
                                                                               
                              DFTD3 V3.1  Rev 1                                
                          USING Becke-Johnson damping                          
-------------------------------------------------------------------------------
The B3LYP functional is recognized
Active option DFTDOPT                   ...         4   

molecular C6(AA) [au] = 1132.929126 


            DFT-D V3
 parameters
 s6 scaling factor         :     1.0000 
 a1 scaling factor         :     0.3981 
 s8 scaling factor         :     1.9889 
 a2 scaling factor         :     4.4211 
 ad hoc parameters k1-k3   :    16.0000     1.3333    -4.0000 

 Edisp/kcal,au: -8.982734940326  -0.014314897788 
 E6   /kcal   :  -4.446923206 
 E8   /kcal   :  -4.535811734 
 % E8         :  50.494774301 

-------------------------   ----------------
Dispersion correction           -0.014314898
-------------------------   ----------------


-------------------------   --------------------
FINAL SINGLE POINT ENERGY      -157.540682979467
-------------------------   --------------------

------------------------------------------------------------------------------
                         ORCA SCF GRADIENT CALCULATION
------------------------------------------------------------------------------

Gradient of the Kohn-Sham DFT energy:
Kohn-Sham wavefunction type      ... UKS
Hartree-Fock exchange scaling    ...    0.200
Number of operators              ...    2
Number of atoms                  ...   13
Basis set dimensions             ...   74
Integral neglect threshold       ... 1.0e-12
Integral primitive cutoff        ... 1.0e-14

Nuclear repulsion gradient       ... done
One Electron Gradient            ... done
Pre-screening matrix             ... done
Starting the two electron gradient:
Two electron gradient done
Exchange-correlation gradient    ... done
Dispersion correction            ... done

------------------
CARTESIAN GRADIENT
------------------

   1   C   :    0.019624131    0.006692661   -0.052596867
   2   C   :   -0.000921601   -0.007991210    0.043159388
   3   C   :   -0.023768475   -0.007723854    0.040751788
   4   C   :   -0.016975890   -0.002529754    0.029087515
   5   H   :    0.001608573    0.001752940   -0.000174580
   6   H   :    0.002149907    0.008698698   -0.011017405
   7   H   :    0.001622041   -0.000850554   -0.012347053
   8   H   :   -0.000989461    0.003631652   -0.011598915
   9   H   :    0.000527493    0.005227644   -0.006450529
  10   H   :    0.004849470    0.004977700   -0.006870065
  11   H   :    0.003245946   -0.007219736   -0.007898993
  12   H   :    0.007243654   -0.004099389   -0.008653050
  13   H   :    0.001784214   -0.000566798    0.004608764

Difference to translation invariance:
           :    0.0000000000   -0.0000000000   -0.0000000000

Norm of the cartesian gradient     ...    0.0975718747
RMS gradient                       ...    0.0156240042
MAX gradient                       ...    0.0525968668

-------
TIMINGS
-------

Total SCF gradient time            ...        4.359 sec

One electron gradient       ....       0.028 sec  (  0.6%)
Prescreening matrices       ....       0.027 sec  (  0.6%)
Two electron gradient       ....       1.450 sec  ( 33.3%)
XC gradient                 ....       2.702 sec  ( 62.0%)
------------------------------------------------------------------------------
                         ORCA GEOMETRY RELAXATION STEP
------------------------------------------------------------------------------

Reading the OPT-File                    .... done
Getting information on internals        .... done
Copying old internal coords+grads       .... done
Making the new internal coordinates     .... (new redundants).... done
Validating the new internal coordinates .... (new redundants).... done
Calculating the B-matrix                .... done
Calculating the G,G- and P matrices     .... done
Transforming gradient to internals      .... done
Projecting the internal gradient        .... done
Number of atoms                         ....  13
Number of internal coordinates          ....  51
Current Energy                          ....  -157.540682979 Eh
Current gradient norm                   ....     0.097571875 Eh/bohr
Maximum allowed component of the step   ....  0.300
Current trust radius                    ....  0.300
Evaluating the initial hessian          ....  (Almloef) done
Projecting the Hessian                  .... done
Forming the augmented Hessian           .... done
Diagonalizing the augmented Hessian     .... done
Last element of RFO vector              ....  0.920888651
Lowest eigenvalues of augmented Hessian:
 -0.015298754  0.011203540  0.012562717  0.013065779  0.042247966
Length of the computed step             ....  0.423314720
Warning: the length of the step is outside the trust region - taking restricted step instead
The input lambda is                     ....    -0.015299
   iter:   1  x=   -0.029732  g=    6.179752 f(x)=     0.089195
   iter:   2  x=   -0.038870  g=    2.968844 f(x)=     0.027127
   iter:   3  x=   -0.041103  g=    2.047938 f(x)=     0.004573
   iter:   4  x=   -0.041201  g=    1.885273 f(x)=     0.000185
   iter:   5  x=   -0.041201  g=    1.878543 f(x)=     0.000000
   iter:   6  x=   -0.041201  g=    1.878531 f(x)=     0.000000
   iter:   7  x=   -0.041201  g=    1.878531 f(x)=     0.000000
The output lambda is                    ....    -0.041201 (7 iterations)
The final length of the internal step   ....  0.300000000
Converting the step to cartesian space:
 Initial RMS(Int)=    0.0420084025
Transforming coordinates:
 Iter   0:  RMS(Cart)=    0.0461056318 RMS(Int)=    0.0426829303
 Iter   1:  RMS(Cart)=    0.0020812749 RMS(Int)=    0.0011538010
 Iter   2:  RMS(Cart)=    0.0000726765 RMS(Int)=    0.0000456831
 Iter   3:  RMS(Cart)=    0.0000031926 RMS(Int)=    0.0000024093
 Iter   4:  RMS(Cart)=    0.0000001892 RMS(Int)=    0.0000001280
 Iter   5:  RMS(Cart)=    0.0000000083 RMS(Int)=    0.0000000051
done
Storing new coordinates                 .... done

                                .--------------------.
          ----------------------|Geometry convergence|-------------------------
          Item                value                   Tolerance       Converged
          ---------------------------------------------------------------------
          RMS gradient        0.0070480730            0.0001000000      NO
          MAX gradient        0.0165592238            0.0003000000      NO
          RMS step            0.0420084025            0.0020000000      NO
          MAX step            0.0986055107            0.0040000000      NO
          ........................................................
          Max(Bonds)      0.0123      Max(Angles)    3.02
          Max(Dihed)        5.65      Max(Improp)    0.00
          ---------------------------------------------------------------------

The optimization has not yet converged - more geometry cycles are needed


    ---------------------------------------------------------------------------
                         Redundant Internal Coordinates
                            (Angstroem and degrees)

        Definition                    Value    dE/dq     Step     New-Value
    ----------------------------------------------------------------------------
     1. B(C   1,C   0)                1.5207 -0.002059  0.0025    1.5232   
     2. B(C   2,C   0)                1.4979 -0.010716  0.0123    1.5102   
     3. B(C   3,C   0)                1.5035 -0.009284  0.0108    1.5143   
     4. B(H   4,C   1)                1.1060 -0.000781  0.0011    1.1071   
     5. B(H   5,C   1)                1.1201  0.007883 -0.0115    1.1086   
     6. B(H   6,C   1)                1.1194  0.007436 -0.0108    1.1086   
     7. B(H   7,C   2)                1.1077  0.001081 -0.0015    1.1062   
     8. B(H   8,C   2)                1.1193  0.004996 -0.0073    1.1120   
     9. B(H   9,C   2)                1.0981 -0.006920  0.0094    1.1075   
    10. B(H  10,C   3)                1.1048 -0.000528  0.0007    1.1055   
    11. B(H  11,C   3)                1.1195  0.006615 -0.0096    1.1099   
    12. B(H  12,C   3)                1.1161  0.004174 -0.0060    1.1101   
    13. A(C   1,C   0,C   3)          111.95 -0.004689    2.43    114.38   
    14. A(C   2,C   0,C   3)          113.10 -0.001588    1.85    114.95   
    15. A(C   1,C   0,C   2)          112.76 -0.002041    1.94    114.70   
    16. A(H   4,C   1,H   5)          111.86  0.008561   -1.55    110.31   
    17. A(H   5,C   1,H   6)          104.82  0.001516    0.80    105.62   
    18. A(H   4,C   1,H   6)          112.41  0.007407   -1.95    110.46   
    19. A(C   0,C   1,H   4)          112.19  0.003682   -0.92    111.27   
    20. A(C   0,C   1,H   5)          105.43 -0.016559    3.02    108.45   
    21. A(C   0,C   1,H   6)          109.65 -0.006351    1.04    110.69   
    22. A(H   7,C   2,H   9)          114.41  0.008773   -2.41    112.00   
    23. A(C   0,C   2,H   9)          114.73  0.009367   -1.80    112.93   
    24. A(H   7,C   2,H   8)          105.16  0.001890    0.69    105.85   
    25. A(C   0,C   2,H   8)          106.59 -0.011979    2.40    108.99   
    26. A(H   8,C   2,H   9)          106.64  0.001198    0.07    106.71   
    27. A(C   0,C   2,H   7)          108.56 -0.011024    1.58    110.14   
    28. A(H  11,C   3,H  12)          110.02  0.006645   -1.25    108.77   
    29. A(H  10,C   3,H  12)          112.98  0.009073   -2.04    110.95   
    30. A(C   0,C   3,H  12)          112.62  0.005029   -1.02    111.60   
    31. A(H  10,C   3,H  11)          106.86  0.004406    0.10    106.96   
    32. A(C   0,C   3,H  11)          106.43 -0.013925    2.48    108.91   
    33. A(C   0,C   3,H  10)          107.56 -0.012847    2.09    109.65   
    34. D(H   6,C   1,C   0,C   2)    -71.77 -0.010284    5.65    -66.12   
    35. D(H   4,C   1,C   0,C   2)     53.88 -0.002739    3.22     57.10   
    36. D(H   6,C   1,C   0,C   3)    159.35 -0.002292   -0.67    158.69   
    37. D(H   5,C   1,C   0,C   2)    175.87 -0.000925    2.76    178.63   
    38. D(H   4,C   1,C   0,C   3)    -75.00  0.005253   -3.10    -78.10   
    39. D(H   5,C   1,C   0,C   3)     46.99  0.007066   -3.56     43.43   
    40. D(H   7,C   2,C   0,C   1)     60.79  0.011278   -5.54     55.25   
    41. D(H   9,C   2,C   0,C   3)     59.69 -0.008429    4.53     64.22   
    42. D(H   9,C   2,C   0,C   1)    -68.59  0.001271   -2.17    -70.76   
    43. D(H   8,C   2,C   0,C   3)    -58.10 -0.007230    3.87    -54.24   
    44. D(H   8,C   2,C   0,C   1)    173.61  0.002469   -2.83    170.78   
    45. D(H   7,C   2,C   0,C   3)   -170.92  0.001578    1.16   -169.77   
    46. D(H  11,C   3,C   0,C   1)   -171.18 -0.000736    2.05   -169.13   
    47. D(H  10,C   3,C   0,C   2)    174.35 -0.000075   -2.06    172.29   
    48. D(H  10,C   3,C   0,C   1)    -56.95 -0.008341    4.33    -52.62   
    49. D(H  12,C   3,C   0,C   2)    -60.51  0.005544   -3.83    -64.34   
    50. D(H  12,C   3,C   0,C   1)     68.19 -0.002722    2.56     70.75   
    51. D(H  11,C   3,C   0,C   2)     60.12  0.007530   -4.34     55.78   
    ----------------------------------------------------------------------------

         *************************************************************
         *                GEOMETRY OPTIMIZATION CYCLE   2            *
         *************************************************************
---------------------------------
CARTESIAN COORDINATES (ANGSTROEM)
---------------------------------
  C      0.052779   -0.010452   -0.263238
  C     -1.224455   -0.828835   -0.125155
  C      1.273806   -0.644495    0.359508
  C     -0.118664    1.464106    0.035859
  H     -1.452516   -1.041075    0.937215
  H     -2.055621   -0.262514   -0.591571
  H     -1.148199   -1.773081   -0.701077
  H      1.425705   -1.660518   -0.050620
  H      2.173825   -0.061727    0.064643
  H      1.242822   -0.644641    1.466588
  H     -0.951286    1.870777   -0.567040
  H      0.799459    2.003206   -0.277739
  H     -0.287078    1.644717    1.118118

----------------------------
CARTESIAN COORDINATES (A.U.)
----------------------------
  NO LB      ZA    FRAG     MASS         X           Y           Z
   0 C     6.0000    0    12.011    0.099737   -0.019751   -0.497447
   1 C     6.0000    0    12.011   -2.313884   -1.566271   -0.236510
   2 C     6.0000    0    12.011    2.407144   -1.217920    0.679372
   3 C     6.0000    0    12.011   -0.224242    2.766759    0.067765
   4 H     1.0000    0     1.008   -2.744857   -1.967346    1.771079
   5 H     1.0000    0     1.008   -3.884561   -0.496079   -1.117907
   6 H     1.0000    0     1.008   -2.169782   -3.350638   -1.324843
   7 H     1.0000    0     1.008    2.694192   -3.137925   -0.095659
   8 H     1.0000    0     1.008    4.107934   -0.116647    0.122157
   9 H     1.0000    0     1.008    2.348594   -1.218195    2.771449
  10 H     1.0000    0     1.008   -1.797670    3.535255   -1.071551
  11 H     1.0000    0     1.008    1.510758    3.785510   -0.524851
  12 H     1.0000    0     1.008   -0.542498    3.108064    2.112937

--------------------------------
INTERNAL COORDINATES (ANGSTROEM)
--------------------------------
 C      0   0   0     0.000000000000     0.00000000     0.00000000
 C      1   0   0     1.523201638983     0.00000000     0.00000000
 C      1   2   0     1.510209090806   114.51956685     0.00000000
 C      1   2   3     1.514322232797   114.22574344   224.75446747
 H      2   1   3     1.107107816581   111.26744954    57.13025018
 H      2   1   3     1.108648225247   108.42458965   178.62109574
 H      2   1   3     1.108648565612   110.66095435   293.93757369
 H      3   1   2     1.106156327669   110.10647411    55.21600321
 H      3   1   2     1.112024725151   108.96626363   170.80934064
 H      3   1   2     1.107512968443   112.93163884   289.22042940
 H      4   1   2     1.105499346083   109.61841835   307.44166871
 H      4   1   2     1.109919473478   108.87474541   190.85733286
 H      4   1   2     1.110075566403   111.60267538    70.77052631

---------------------------
INTERNAL COORDINATES (A.U.)
---------------------------
 C      0   0   0     0.000000000000     0.00000000     0.00000000
 C      1   0   0     2.878433944419     0.00000000     0.00000000
 C      1   2   0     2.853881586581   114.51956685     0.00000000
 C      1   2   3     2.861654298495   114.22574344   224.75446747
 H      2   1   3     2.092130574061   111.26744954    57.13025018
 H      2   1   3     2.095041524574   108.42458965   178.62109574
 H      2   1   3     2.095042167771   110.66095435   293.93757369
 H      3   1   2     2.090332520598   110.10647411    55.21600321
 H      3   1   2     2.101422184685   108.96626363   170.80934064
 H      3   1   2     2.092896200124   112.93163884   289.22042940
 H      4   1   2     2.089091005326   109.61841835   307.44166871
 H      4   1   2     2.097443835580   108.87474541   190.85733286
 H      4   1   2     2.097738808460   111.60267538    70.77052631


Diagonalization of the overlap matrix:
Smallest eigenvalue                        ... 3.333e-03
Time for diagonalization                   ...    0.001 sec
Threshold for overlap eigenvalues          ... 1.000e-08
Number of eigenvalues below threshold      ... 0
Time for construction of square roots      ...    1.673 sec
Total time needed                          ...    1.674 sec

-------------------
DFT GRID GENERATION
-------------------

General Integration Accuracy     IntAcc      ...  4.340
Radial Grid Type                 RadialGrid  ... Gauss-Chebyshev
Angular Grid (max. acc.)         AngularGrid ... Lebedev-110
Angular grid pruning method      GridPruning ... 3 (G Style)
Weight generation scheme         WeightScheme... Becke
Basis function cutoff            BFCut       ...    1.0000e-12
Integration weight cutoff        WCut        ...    1.0000e-14
Grids for H and He will be reduced by one unit

# of grid points (after initial pruning)     ...  13770 (   0.0 sec)
# of grid points (after weights+screening)   ...  12936 (   0.0 sec)
nearest neighbour list constructed           ...    0.0 sec
Grid point re-assignment to atoms done       ...    0.0 sec
Grid point division into batches done        ...    0.0 sec
Reduced shell lists constructed in    0.1 sec

Total number of grid points                  ...    12936
Total number of batches                      ...      209
Average number of points per batch           ...       61
Average number of grid points per atom       ...      995
Average number of shells per batch           ...    37.10 (88.33%)
Average number of basis functions per batch  ...    66.12 (89.35%)
Average number of large shells per batch     ...    32.21 (86.83%)
Average number of large basis fcns per batch ...    56.92 (86.09%)
Maximum spatial batch extension              ...  19.24, 20.86, 22.44 au
Average spatial batch extension              ...   4.11,  4.16,  4.08 au

Time for grid setup =    0.266 sec

--------------
SCF ITERATIONS
--------------
ITER       Energy         Delta-E        Max-DP      RMS-DP      [F,P]     Damp
               ***  Starting incremental Fock matrix formation  ***
  0   -157.5339230885   0.000000000000 0.00242040  0.00012482  0.0128292 0.7000
  1   -157.5343257118  -0.000402623244 0.00283075  0.00011901  0.0102294 0.7000
                               ***Turning on DIIS***
  2   -157.5346378972  -0.000312185392 0.00876702  0.00032462  0.0078398 0.0000
  3   -157.5354277444  -0.000789847261 0.00263631  0.00007319  0.0015946 0.0000
  4   -157.5354430905  -0.000015346127 0.00302153  0.00007716  0.0006953 0.0000
  5   -157.5354470487  -0.000003958114 0.00050758  0.00001509  0.0002992 0.0000
  6   -157.5354475595  -0.000000510849 0.00027563  0.00000670  0.0000651 0.0000
  7   -157.5354476079  -0.000000048377 0.00002797  0.00000109  0.0000244 0.0000
  8   -157.5354476109  -0.000000002993 0.00001026  0.00000046  0.0000142 0.0000
  9   -157.5354476118  -0.000000000960 0.00000443  0.00000015  0.0000026 0.0000
 10   -157.5354476119  -0.000000000071 0.00000082  0.00000005  0.0000003 0.0000
 11   -157.5354476119  -0.000000000009 0.00000035  0.00000002  0.0000001 0.0000
 12   -157.5354476119  -0.000000000001 0.00000022  0.00000001  0.0000001 0.0000
                 **** Energy Check signals convergence ****

 Fermi smearing  (ALPHA): E(HOMO(Eh)) = -0.329169 MUE = -0.068799 gap=   6.715 eV
 Fermi smearing   (BETA): E(HOMO(Eh)) = -0.323944 MUE = -0.182068 gap=   7.641 eV

N_FOD(alpha) =  0.000000
 N_FOD(beta) =  0.000000
       N_FOD =  0.000000

               *****************************************************
               *                     SUCCESS                       *
               *           SCF CONVERGED AFTER  13 CYCLES          *
               *****************************************************

Setting up the final grid:

General Integration Accuracy     IntAcc      ...  4.670
Radial Grid Type                 RadialGrid  ... Gauss-Chebyshev
Angular Grid (max. acc.)         AngularGrid ... Lebedev-302
Angular grid pruning method      GridPruning ... 3 (G Style)
Weight generation scheme         WeightScheme... Becke
Basis function cutoff            BFCut       ...    1.0000e-12
Integration weight cutoff        WCut        ...    1.0000e-14
Grids for H and He will be reduced by one unit

# of grid points (after initial pruning)     ...  55394 (   0.0 sec)
# of grid points (after weights+screening)   ...  51335 (   0.1 sec)
nearest neighbour list constructed           ...    0.0 sec
Grid point re-assignment to atoms done       ...    0.0 sec
Grid point division into batches done        ...    0.2 sec
Reduced shell lists constructed in    0.4 sec

Total number of grid points                  ...    51335
Total number of batches                      ...      808
Average number of points per batch           ...       63
Average number of grid points per atom       ...     3949
Average number of shells per batch           ...    34.72 (82.68%)
Average number of basis functions per batch  ...    61.67 (83.34%)
Average number of large shells per batch     ...    29.49 (84.93%)
Average number of large basis fcns per batch ...    51.73 (83.87%)
Maximum spatial batch extension              ...  18.01, 20.54, 20.25 au
Average spatial batch extension              ...   2.61,  2.64,  2.59 au

Final grid set up in    1.2 sec
Final integration                            ... done (   3.0 sec)
Change in XC energy                          ...    -0.000189150
Integrated number of electrons               ...    33.000081290
Previous integrated no of electrons          ...    32.998886276
Total Energy       :         -157.53563676 Eh           -4286.76261 eV
  Last Energy change         ...    8.8392e-12  Tolerance :   1.0000e-09
  Last MAX-Density change    ...    1.1429e-07  Tolerance :   1.0000e-08
             **** THE GBW FILE WAS UPDATED (orca6.gbw) ****
             **** DENSITY FILE WAS UPDATED (orca6.scfp) ****
             **** ENERGY FILE WAS UPDATED (orca6.en.tmp) ****
             **** THE GBW FILE WAS UPDATED (orca6.gbw) ****
             **** DENSITY FILE WAS UPDATED (orca6.scfp) ****
Total SCF time: 0 days 0 hours 1 min 36 sec 


-------------------------------------------------------------------------------
                          DFT DISPERSION CORRECTION                            
                                                                               
                              DFTD3 V3.1  Rev 1                                
                          USING Becke-Johnson damping                          
-------------------------------------------------------------------------------
-------------------------   ----------------
Dispersion correction           -0.014111323
-------------------------   ----------------


-------------------------   --------------------
FINAL SINGLE POINT ENERGY      -157.549748085666
-------------------------   --------------------

------------------------------------------------------------------------------
                         ORCA SCF GRADIENT CALCULATION
------------------------------------------------------------------------------

Gradient of the Kohn-Sham DFT energy:
Kohn-Sham wavefunction type      ... UKS
Hartree-Fock exchange scaling    ...    0.200
Number of operators              ...    2
Number of atoms                  ...   13
Basis set dimensions             ...   74
Integral neglect threshold       ... 1.0e-12
Integral primitive cutoff        ... 1.0e-14

Nuclear repulsion gradient       ... done
One Electron Gradient            ... done
Pre-screening matrix             ... done
Starting the two electron gradient:
Two electron gradient done
Exchange-correlation gradient    ... done
Dispersion correction            ... done

------------------
CARTESIAN GRADIENT
------------------

   1   C   :    0.012304503    0.002607868   -0.035711763
   2   C   :   -0.008167323   -0.009159840    0.025038840
   3   C   :   -0.008324810   -0.007845856    0.025969960
   4   C   :   -0.009810082    0.006532867    0.021401064
   5   H   :    0.001827866    0.001668039   -0.001033424
   6   H   :    0.002787841    0.002459836   -0.005786466
   7   H   :   -0.000082280    0.002576488   -0.006484636
   8   H   :    0.000424519    0.002680041   -0.007503527
   9   H   :    0.000306132    0.001626011   -0.003473929
  10   H   :    0.002751178    0.003868107   -0.002214317
  11   H   :    0.002176620   -0.003116639   -0.005315223
  12   H   :    0.001815805   -0.002602773   -0.004685791
  13   H   :    0.001990031   -0.001294149   -0.000200786

Difference to translation invariance:
           :   -0.0000000000   -0.0000000000   -0.0000000000

Norm of the cartesian gradient     ...    0.0624724640
RMS gradient                       ...    0.0100036003
MAX gradient                       ...    0.0357117631

-------
TIMINGS
-------

Total SCF gradient time            ...        4.296 sec

One electron gradient       ....       0.029 sec  (  0.7%)
Prescreening matrices       ....       0.026 sec  (  0.6%)
Two electron gradient       ....       1.386 sec  ( 32.3%)
XC gradient                 ....       2.654 sec  ( 61.8%)
------------------------------------------------------------------------------
                         ORCA GEOMETRY RELAXATION STEP
------------------------------------------------------------------------------

Reading the OPT-File                    .... done
Getting information on internals        .... done
Copying old internal coords+grads       .... done
Making the new internal coordinates     .... (new redundants).... done
Validating the new internal coordinates .... (new redundants).... done
Calculating the B-matrix                .... done
Calculating the G,G- and P matrices     .... done
Transforming gradient to internals      .... done
Projecting the internal gradient        .... done
Number of atoms                         ....  13
Number of internal coordinates          ....  51
Current Energy                          ....  -157.549748086 Eh
Current gradient norm                   ....     0.062472464 Eh/bohr
Maximum allowed component of the step   ....  0.300
Current trust radius                    ....  0.300
Updating the Hessian (BFGS)             .... done
Forming the augmented Hessian           .... done
Diagonalizing the augmented Hessian     .... done
Last element of RFO vector              ....  0.938010662
Lowest eigenvalues of augmented Hessian:
 -0.007988524  0.011199322  0.012561937  0.013064919  0.039727518
Length of the computed step             ....  0.369512221
Warning: the length of the step is outside the trust region - taking restricted step instead
The input lambda is                     ....    -0.007989
   iter:   1  x=   -0.016069  g=    5.759268 f(x)=     0.046539
   iter:   2  x=   -0.019122  g=    3.444545 f(x)=     0.010514
   iter:   3  x=   -0.019411  g=    2.913539 f(x)=     0.000843
   iter:   4  x=   -0.019413  g=    2.869394 f(x)=     0.000006
   iter:   5  x=   -0.019413  g=    2.869057 f(x)=     0.000000
   iter:   6  x=   -0.019413  g=    2.869057 f(x)=    -0.000000
The output lambda is                    ....    -0.019413 (6 iterations)
The final length of the internal step   ....  0.300000000
Converting the step to cartesian space:
 Initial RMS(Int)=    0.0420084025
Transforming coordinates:
 Iter   0:  RMS(Cart)=    0.0333564313 RMS(Int)=    0.8752318355
 Iter   1:  RMS(Cart)=    0.0018297132 RMS(Int)=    0.0012104675
 Iter   2:  RMS(Cart)=    0.0000760013 RMS(Int)=    0.0000463181
 Iter   3:  RMS(Cart)=    0.0000027258 RMS(Int)=    0.0000021734
 Iter   4:  RMS(Cart)=    0.0000001403 RMS(Int)=    0.0000001069
 Iter   5:  RMS(Cart)=    0.0000000068 RMS(Int)=    0.0000000046
done
Storing new coordinates                 .... done

                                .--------------------.
          ----------------------|Geometry convergence|-------------------------
          Item                value                   Tolerance       Converged
          ---------------------------------------------------------------------
          Energy change      -0.0090651062            0.0000050000      NO
          RMS gradient        0.0036455107            0.0001000000      NO
          MAX gradient        0.0078478777            0.0003000000      NO
          RMS step            0.0420084025            0.0020000000      NO
          MAX step            0.1062792165            0.0040000000      NO
          ........................................................
          Max(Bonds)      0.0126      Max(Angles)    3.06
          Max(Dihed)        6.09      Max(Improp)    0.00
          ---------------------------------------------------------------------

The optimization has not yet converged - more geometry cycles are needed


    ---------------------------------------------------------------------------
                         Redundant Internal Coordinates
                            (Angstroem and degrees)

        Definition                    Value    dE/dq     Step     New-Value
    ----------------------------------------------------------------------------
     1. B(C   1,C   0)                1.5232  0.005432 -0.0126    1.5106   
     2. B(C   2,C   0)                1.5102  0.001206 -0.0019    1.5083   
     3. B(C   3,C   0)                1.5143  0.002185 -0.0042    1.5101   
     4. B(H   4,C   1)                1.1071 -0.001686  0.0045    1.1116   
     5. B(H   5,C   1)                1.1086  0.001599 -0.0048    1.1039   
     6. B(H   6,C   1)                1.1086  0.001169 -0.0036    1.1051   
     7. B(H   7,C   2)                1.1062  0.000381 -0.0011    1.1051   
     8. B(H   8,C   2)                1.1120  0.002026 -0.0058    1.1062   
     9. B(H   9,C   2)                1.1075 -0.002300  0.0063    1.1138   
    10. B(H  10,C   3)                1.1055  0.000112 -0.0003    1.1052   
    11. B(H  11,C   3)                1.1099  0.001557 -0.0046    1.1053   
    12. B(H  12,C   3)                1.1101 -0.000701  0.0017    1.1118   
    13. A(C   1,C   0,C   3)          114.23 -0.002683    2.26    116.49   
    14. A(C   2,C   0,C   3)          114.77 -0.000544    1.50    116.26   
    15. A(C   1,C   0,C   2)          114.52 -0.000797    1.59    116.11   
    16. A(H   4,C   1,H   5)          110.32  0.005086   -1.89    108.43   
    17. A(H   5,C   1,H   6)          105.55 -0.000422    1.49    107.04   
    18. A(H   4,C   1,H   6)          110.45  0.004767   -2.37    108.08   
    19. A(C   0,C   1,H   4)          111.27  0.000897   -0.71    110.56   
    20. A(C   0,C   1,H   5)          108.42 -0.007848    2.90    111.33   
    21. A(C   0,C   1,H   6)          110.66 -0.002736    0.94    111.60   
    22. A(H   7,C   2,H   9)          111.98  0.005747   -3.06    108.93   
    23. A(C   0,C   2,H   9)          112.93  0.004711   -1.88    111.05   
    24. A(H   7,C   2,H   8)          105.78 -0.000019    1.33    107.11   
    25. A(C   0,C   2,H   8)          108.97 -0.005550    2.36    111.33   
    26. A(H   8,C   2,H   9)          106.72  0.000163    0.26    106.98   
    27. A(C   0,C   2,H   7)          110.11 -0.005520    1.53    111.64   
    28. A(H  11,C   3,H  12)          108.78  0.003578   -1.29    107.49   
    29. A(H  10,C   3,H  12)          110.95  0.005474   -2.47    108.48   
    30. A(C   0,C   3,H  12)          111.60  0.001877   -0.89    110.71   
    31. A(H  10,C   3,H  11)          106.87  0.001487    0.59    107.46   
    32. A(C   0,C   3,H  11)          108.87 -0.006639    2.43    111.31   
    33. A(C   0,C   3,H  10)          109.62 -0.005947    1.92    111.54   
    34. D(H   6,C   1,C   0,C   2)    -66.06 -0.006601    6.09    -59.97   
    35. D(H   4,C   1,C   0,C   2)     57.13 -0.001795    3.20     60.33   
    36. D(H   6,C   1,C   0,C   3)    158.69 -0.001924    0.16    158.85   
    37. D(H   5,C   1,C   0,C   2)    178.62 -0.000088    2.35    180.97   
    38. D(H   4,C   1,C   0,C   3)    -78.12  0.002883   -2.73    -80.84   
    39. D(H   5,C   1,C   0,C   3)     43.38  0.004590   -3.58     39.79   
    40. D(H   7,C   2,C   0,C   1)     55.22  0.007281   -5.90     49.31   
    41. D(H   9,C   2,C   0,C   3)     64.22 -0.005233    4.80     69.02   
    42. D(H   9,C   2,C   0,C   1)    -70.78  0.000441   -1.56    -72.34   
    43. D(H   8,C   2,C   0,C   3)    -54.19 -0.004654    4.02    -50.17   
    44. D(H   8,C   2,C   0,C   1)    170.81  0.001020   -2.34    168.47   
    45. D(H   7,C   2,C   0,C   3)   -169.78  0.001607    0.46   -169.33   
    46. D(H  11,C   3,C   0,C   1)   -169.14 -0.000062    1.59   -167.55   
    47. D(H  10,C   3,C   0,C   2)    172.31 -0.000585   -1.48    170.83   
    48. D(H  10,C   3,C   0,C   1)    -52.56 -0.005393    4.52    -48.04   
    49. D(H  12,C   3,C   0,C   2)    -64.36  0.003478   -3.86    -68.23   
    50. D(H  12,C   3,C   0,C   1)     70.77 -0.001330    2.13     72.90   
    51. D(H  11,C   3,C   0,C   2)     55.72  0.004746   -4.40     51.32   
    ----------------------------------------------------------------------------

         *************************************************************
         *                GEOMETRY OPTIMIZATION CYCLE   3            *
         *************************************************************
---------------------------------
CARTESIAN COORDINATES (ANGSTROEM)
---------------------------------
  C      0.040160   -0.003264   -0.225464
  C     -1.223173   -0.827058   -0.139437
  C      1.282004   -0.644560    0.341473
  C     -0.111082    1.478375    0.023950
  H     -1.468803   -1.055345    0.920372
  H     -2.079231   -0.294873   -0.589413
  H     -1.120176   -1.784653   -0.681310
  H      1.416073   -1.673841   -0.037788
  H      2.189703   -0.077479    0.061850
  H      1.245115   -0.672457    1.454284
  H     -0.952371    1.901870   -0.554343
  H      0.800567    2.029077   -0.271619
  H     -0.288208    1.679674    1.102935

----------------------------
CARTESIAN COORDINATES (A.U.)
----------------------------
  NO LB      ZA    FRAG     MASS         X           Y           Z
[...]

             **** THE GBW FILE WAS UPDATED (orca6.gbw) ****
             **** DENSITY FILE WAS UPDATED (orca6.scfp) ****
             **** ENERGY FILE WAS UPDATED (orca6.en.tmp) ****
             **** THE GBW FILE WAS UPDATED (orca6.gbw) ****
             **** DENSITY FILE WAS UPDATED (orca6.scfp) ****
----------------
ORBITAL ENERGIES
----------------
                 SPIN UP ORBITALS
  NO   OCC          E(Eh)            E(eV) 
   0   1.0000     -10.183084      -277.0958 
   1   1.0000     -10.169004      -276.7127 
   2   1.0000     -10.168976      -276.7119 
   3   1.0000     -10.168896      -276.7097 
   4   1.0000      -0.789008       -21.4700 
   5   1.0000      -0.677169       -18.4267 
   6   1.0000      -0.676996       -18.4220 
   7   1.0000      -0.525991       -14.3129 
   8   1.0000      -0.439580       -11.9616 
   9   1.0000      -0.435219       -11.8429 
  10   1.0000      -0.434962       -11.8359 
  11   1.0000      -0.381490       -10.3809 
  12   1.0000      -0.381093       -10.3701 
  13   1.0000      -0.362677        -9.8689 
  14   1.0000      -0.342017        -9.3067 
  15   1.0000      -0.341914        -9.3040 
  16   1.0000      -0.170379        -4.6362 
  17   0.0000       0.054456         1.4818 
  18   0.0000       0.104585         2.8459 
  19   0.0000       0.105812         2.8793 
  20   0.0000       0.121056         3.2941 
  21   0.0000       0.121275         3.3001 
  22   0.0000       0.132719         3.6115 
  23   0.0000       0.156478         4.2580 
  24   0.0000       0.156826         4.2674 
  25   0.0000       0.191172         5.2021 
  26   0.0000       0.206527         5.6199 
  27   0.0000       0.278011         7.5651 
  28   0.0000       0.281531         7.6608 
  29   0.0000       0.401190        10.9169 
  30   0.0000       0.401740        10.9319 
  31   0.0000       0.439285        11.9535 
  32   0.0000       0.473440        12.8830 
  33   0.0000       0.475532        12.9399 
  34   0.0000       0.476218        12.9585 
  35   0.0000       0.613397        16.6914 
  36   0.0000       0.621864        16.9218 
  37   0.0000       0.624411        16.9911 
  38   0.0000       0.640069        17.4172 
  39   0.0000       0.646735        17.5985 
  40   0.0000       0.664281        18.0760 
  41   0.0000       0.682218        18.5641 
  42   0.0000       0.682380        18.5685 
  43   0.0000       0.705999        19.2112 
  44   0.0000       0.706337        19.2204 
  45   0.0000       0.706847        19.2343 
  46   0.0000       0.731458        19.9040 
  47   0.0000       0.733412        19.9571 
  48   0.0000       0.763927        20.7875 
  49   0.0000       0.787814        21.4375 
  50   0.0000       0.788458        21.4550 
  51   0.0000       0.844612        22.9831 
  52   0.0000       1.012947        27.5637 
  53   0.0000       1.016691        27.6656 
  54   0.0000       1.429801        38.9069 
  55   0.0000       1.431201        38.9449 
  56   0.0000       1.724336        46.9216 
  57   0.0000       1.772698        48.2376 
  58   0.0000       1.773731        48.2657 
  59   0.0000       1.778250        48.3886 
  60   0.0000       1.975823        53.7649 
  61   0.0000       1.980298        53.8867 
  62   0.0000       1.982359        53.9427 
  63   0.0000       2.040286        55.5190 
  64   0.0000       2.045087        55.6497 
  65   0.0000       2.133335        58.0510 
  66   0.0000       2.155963        58.6667 
  67   0.0000       2.176595        59.2282 
  68   0.0000       2.178231        59.2727 
  69   0.0000       2.415317        65.7241 
  70   0.0000       2.416694        65.7616 
  71   0.0000       2.483362        67.5757 
  72   0.0000       2.732843        74.3644 
  73   0.0000       2.733239        74.3752 

                 SPIN DOWN ORBITALS
  NO   OCC          E(Eh)            E(eV) 
   0   1.0000     -10.170002      -276.7398 
   1   1.0000     -10.169976      -276.7391 
   2   1.0000     -10.169899      -276.7370 
   3   1.0000     -10.168787      -276.7068 
   4   1.0000      -0.772021       -21.0078 
   5   1.0000      -0.674789       -18.3619 
   6   1.0000      -0.674645       -18.3580 
   7   1.0000      -0.507940       -13.8217 
   8   1.0000      -0.431137       -11.7318 
   9   1.0000      -0.431001       -11.7281 
  10   1.0000      -0.419730       -11.4214 
  11   1.0000      -0.375468       -10.2170 
  12   1.0000      -0.375156       -10.2085 
  13   1.0000      -0.361565        -9.8387 
  14   1.0000      -0.337146        -9.1742 
  15   1.0000      -0.337129        -9.1737 
  16   0.0000      -0.030100        -0.8191 
  17   0.0000       0.055624         1.5136 
  18   0.0000       0.105590         2.8733 
  19   0.0000       0.106787         2.9058 
  20   0.0000       0.122474         3.3327 
  21   0.0000       0.122808         3.3418 
  22   0.0000       0.141360         3.8466 
  23   0.0000       0.159497         4.3401 
  24   0.0000       0.160003         4.3539 
  25   0.0000       0.191332         5.2064 
  26   0.0000       0.224694         6.1142 
  27   0.0000       0.284210         7.7337 
  28   0.0000       0.287784         7.8310 
  29   0.0000       0.403157        10.9705 
  30   0.0000       0.403740        10.9863 
  31   0.0000       0.461014        12.5448 
  32   0.0000       0.480237        13.0679 
  33   0.0000       0.482607        13.1324 
  34   0.0000       0.492837        13.4108 
  35   0.0000       0.623267        16.9599 
  36   0.0000       0.625675        17.0255 
  37   0.0000       0.647631        17.6229 
  38   0.0000       0.649462        17.6728 
  39   0.0000       0.658641        17.9225 
  40   0.0000       0.673644        18.3308 
  41   0.0000       0.687064        18.6960 
  42   0.0000       0.687308        18.7026 
  43   0.0000       0.708444        19.2777 
  44   0.0000       0.708753        19.2861 
  45   0.0000       0.716259        19.4904 
  46   0.0000       0.734788        19.9946 
  47   0.0000       0.736758        20.0482 
  48   0.0000       0.763628        20.7794 
  49   0.0000       0.792109        21.5544 
  50   0.0000       0.792644        21.5689 
  51   0.0000       0.853910        23.2361 
  52   0.0000       1.015973        27.6460 
  53   0.0000       1.019721        27.7480 
  54   0.0000       1.452025        39.5116 
  55   0.0000       1.453509        39.5520 
  56   0.0000       1.721980        46.8575 
  57   0.0000       1.776217        48.3333 
  58   0.0000       1.777390        48.3653 
  59   0.0000       1.806916        49.1687 
  60   0.0000       1.983338        53.9694 
  61   0.0000       1.984034        53.9883 
  62   0.0000       2.003624        54.5214 
  63   0.0000       2.049057        55.7577 
  64   0.0000       2.054111        55.8952 
  65   0.0000       2.135505        58.1100 
  66   0.0000       2.155089        58.6430 
  67   0.0000       2.180573        59.3364 
  68   0.0000       2.181880        59.3720 
  69   0.0000       2.437768        66.3350 
  70   0.0000       2.439201        66.3740 
  71   0.0000       2.511543        68.3426 
  72   0.0000       2.740382        74.5696 
  73   0.0000       2.740752        74.5796 

                    ********************************
                    * MULLIKEN POPULATION ANALYSIS *
                    ********************************

------------------------------------------
FOD BASED MULLIKEN REDUCED ORBITAL CHARGES
------------------------------------------
  0 C s       :     0.000000  s :     0.000000
      pz      :     0.000000  p :     0.000000
      px      :     0.000000
      py      :     0.000000
      dz2     :     0.000000  d :     0.000000
      dxz     :     0.000000
      dyz     :     0.000000
      dx2y2   :     0.000000
      dxy     :     0.000000
  1 C s       :    -0.000000  s :    -0.000000
      pz      :     0.000000  p :     0.000000
      px      :     0.000000
      py      :     0.000000
      dz2     :     0.000000  d :     0.000000
      dxz     :     0.000000
      dyz     :     0.000000
      dx2y2   :     0.000000
      dxy     :     0.000000
  2 C s       :    -0.000000  s :    -0.000000
      pz      :     0.000000  p :     0.000000
      px      :     0.000000
      py      :     0.000000
      dz2     :     0.000000  d :     0.000000
      dxz     :     0.000000
      dyz     :     0.000000
      dx2y2   :     0.000000
      dxy     :     0.000000
  3 C s       :    -0.000000  s :    -0.000000
      pz      :     0.000000  p :     0.000000
      px      :     0.000000
      py      :     0.000000
      dz2     :     0.000000  d :     0.000000
      dxz     :     0.000000
      dyz     :     0.000000
      dx2y2   :     0.000000
      dxy     :     0.000000
  4 H s       :     0.000000  s :     0.000000
  5 H s       :     0.000000  s :     0.000000
  6 H s       :     0.000000  s :     0.000000
  7 H s       :     0.000000  s :     0.000000
  8 H s       :     0.000000  s :     0.000000
  9 H s       :     0.000000  s :     0.000000
 10 H s       :     0.000000  s :     0.000000
 11 H s       :     0.000000  s :     0.000000
 12 H s       :     0.000000  s :     0.000000


                     *******************************
                     * LOEWDIN POPULATION ANALYSIS *
                     *******************************

-------------------------------------------
LOEWDIN ATOMIC CHARGES AND SPIN POPULATIONS
-------------------------------------------
   0 C :   -0.080268    0.820708
   1 C :   -0.313639   -0.023211
   2 C :   -0.312621   -0.023252
   3 C :   -0.312434   -0.023190
   4 H :    0.112597    0.058681
   5 H :    0.113768    0.010849
   6 H :    0.113967    0.013702
   7 H :    0.113349    0.012189
   8 H :    0.113369    0.012166
   9 H :    0.112547    0.058018
  10 H :    0.113631    0.011685
  11 H :    0.113600    0.012795
  12 H :    0.112132    0.058858

----------------------------------------------------
LOEWDIN REDUCED ORBITAL CHARGES AND SPIN POPULATIONS
----------------------------------------------------
CHARGE
  0 C s       :     2.904457  s :     2.904457
      pz      :     0.990933  p :     3.083487
      px      :     1.045089
      py      :     1.047465
      dz2     :     0.008144  d :     0.092324
      dxz     :     0.010351
      dyz     :     0.009830
      dx2y2   :     0.031751
      dxy     :     0.032247
  1 C s       :     2.947076  s :     2.947076
      pz      :     1.106637  p :     3.288628
      px      :     1.084238
      py      :     1.097753
      dz2     :     0.012743  d :     0.077934
      dxz     :     0.020146
      dyz     :     0.012599
      dx2y2   :     0.015752
      dxy     :     0.016694
  2 C s       :     2.946900  s :     2.946900
      pz      :     1.103560  p :     3.287753
      px      :     1.082378
      py      :     1.101815
      dz2     :     0.023375  d :     0.077968
      dxz     :     0.010547
      dyz     :     0.009563
      dx2y2   :     0.016898
      dxy     :     0.017585
  3 C s       :     2.947149  s :     2.947149
      pz      :     1.106111  p :     3.287266
      px      :     1.107934
      py      :     1.073220
      dz2     :     0.016694  d :     0.078019
      dxz     :     0.011268
      dyz     :     0.016582
      dx2y2   :     0.015857
      dxy     :     0.017619
  4 H s       :     0.887403  s :     0.887403
  5 H s       :     0.886232  s :     0.886232
  6 H s       :     0.886033  s :     0.886033
  7 H s       :     0.886651  s :     0.886651
  8 H s       :     0.886631  s :     0.886631
  9 H s       :     0.887453  s :     0.887453
 10 H s       :     0.886369  s :     0.886369
 11 H s       :     0.886400  s :     0.886400
 12 H s       :     0.887868  s :     0.887868

SPIN
  0 C s       :     0.041631  s :     0.041631
      pz      :     0.726112  p :     0.782172
      px      :     0.039529
      py      :     0.016532
      dz2     :    -0.001184  d :    -0.003095
      dxz     :    -0.000307
      dyz     :    -0.000134
      dx2y2   :    -0.000714
      dxy     :    -0.000756
  1 C s       :    -0.005777  s :    -0.005777
      pz      :    -0.013493  p :    -0.034334
      px      :    -0.012955
      py      :    -0.007886
      dz2     :     0.001079  d :     0.016901
      dxz     :     0.010064
      dyz     :     0.003896
      dx2y2   :     0.000806
      dxy     :     0.001056
  2 C s       :    -0.005767  s :    -0.005767
      pz      :    -0.014623  p :    -0.034280
      px      :    -0.013523
      py      :    -0.006134
      dz2     :     0.007230  d :     0.016795
      dxz     :     0.006076
      dyz     :     0.002399
      dx2y2   :     0.000522
      dxy     :     0.000567
  3 C s       :    -0.005778  s :    -0.005778
      pz      :    -0.013701  p :    -0.034340
      px      :    -0.004057
      py      :    -0.016582
      dz2     :     0.002749  d :     0.016928
      dxz     :     0.000680
      dyz     :     0.011953
      dx2y2   :     0.000796
      dxy     :     0.000751
  4 H s       :     0.058681  s :     0.058681
  5 H s       :     0.010849  s :     0.010849
  6 H s       :     0.013702  s :     0.013702
  7 H s       :     0.012189  s :     0.012189
  8 H s       :     0.012166  s :     0.012166
  9 H s       :     0.058018  s :     0.058018
 10 H s       :     0.011685  s :     0.011685
 11 H s       :     0.012795  s :     0.012795
 12 H s       :     0.058858  s :     0.058858


                      *****************************
                      * MAYER POPULATION ANALYSIS *
                      *****************************

  NA   - Mulliken gross atomic population
  ZA   - Total nuclear charge
  QA   - Mulliken gross atomic charge
  VA   - Mayer's total valence
  BVA  - Mayer's bonded valence
  FA   - Mayer's free valence

  ATOM       NA         ZA         QA         VA         BVA        FA
  0 C      6.1559     6.0000    -0.1559     4.2142     3.5230     0.6912
  1 C      6.2234     6.0000    -0.2234     3.9414     3.9379     0.0035
  2 C      6.2196     6.0000    -0.2196     3.9373     3.9338     0.0034
  3 C      6.2186     6.0000    -0.2186     3.9384     3.9349     0.0035
  4 H      0.9087     1.0000     0.0913     0.9486     0.9435     0.0050
  5 H      0.9080     1.0000     0.0920     0.9592     0.9591     0.0001
  6 H      0.9089     1.0000     0.0911     0.9581     0.9579     0.0002
  7 H      0.9110     1.0000     0.0890     0.9598     0.9596     0.0002
  8 H      0.9101     1.0000     0.0899     0.9595     0.9593     0.0002
  9 H      0.9084     1.0000     0.0916     0.9493     0.9444     0.0049
 10 H      0.9088     1.0000     0.0912     0.9593     0.9591     0.0002
 11 H      0.9088     1.0000     0.0912     0.9582     0.9580     0.0002
 12 H      0.9098     1.0000     0.0902     0.9486     0.9435     0.0051

  Mayer bond orders larger than 0.100000
B(  0-C ,  1-C ) :   1.1271 B(  0-C ,  2-C ) :   1.1224 B(  0-C ,  3-C ) :   1.1212 
B(  1-C ,  4-H ) :   0.9293 B(  1-C ,  5-H ) :   0.9501 B(  1-C ,  6-H ) :   0.9487 
B(  2-C ,  7-H ) :   0.9504 B(  2-C ,  8-H ) :   0.9506 B(  2-C ,  9-H ) :   0.9299 
B(  3-C , 10-H ) :   0.9504 B(  3-C , 11-H ) :   0.9504 B(  3-C , 12-H ) :   0.9300 


-------
TIMINGS
-------

Total SCF time: 0 days 0 hours 7 min 3 sec 

Total time                  ....     423.926 sec
Sum of individual times     ....     344.822 sec  ( 81.3%)

Fock matrix formation       ....     270.199 sec  ( 63.7%)
  XC integration            ....     136.234 sec  ( 50.4% of F)
    Basis function eval.    ....       0.678 sec  (  0.5% of XC)
    Density eval.           ....       0.444 sec  (  0.3% of XC)
    XC-Functional eval.     ....       0.298 sec  (  0.2% of XC)
    XC-Potential eval.      ....       0.550 sec  (  0.4% of XC)
Diagonalization             ....      14.657 sec  (  3.5%)
Density matrix formation    ....      24.779 sec  (  5.8%)
Population analysis         ....      12.295 sec  (  2.9%)
Initial guess               ....       0.003 sec  (  0.0%)
Orbital Transformation      ....       0.000 sec  (  0.0%)
Orbital Orthonormalization  ....       0.001 sec  (  0.0%)
DIIS solution               ....      16.765 sec  (  4.0%)
Grid generation             ....       6.123 sec  (  1.4%)


-------------------------------------------------------------------------------
                          DFT DISPERSION CORRECTION                            
                                                                               
                              DFTD3 V3.1  Rev 1                                
                          USING Becke-Johnson damping                          
-------------------------------------------------------------------------------
The B3LYP functional is recognized
Active option DFTDOPT                   ...         4   

molecular C6(AA) [au] = 1133.315840 


            DFT-D V3
 parameters
 s6 scaling factor         :     1.0000 
 a1 scaling factor         :     0.3981 
 s8 scaling factor         :     1.9889 
 a2 scaling factor         :     4.4211 
 ad hoc parameters k1-k3   :    16.0000     1.3333    -4.0000 

 Edisp/kcal,au: -8.701174637742  -0.013866202933 
 E6   /kcal   :  -4.308841358 
 E8   /kcal   :  -4.392333280 
 % E8         :  50.479773854 

-------------------------   ----------------
Dispersion correction           -0.013866203
-------------------------   ----------------


-------------------------   --------------------
FINAL SINGLE POINT ENERGY      -157.556973971226
-------------------------   --------------------

                                *** OPTIMIZATION RUN DONE ***

                            ***************************************
                            *     ORCA property calculations      *
                            ***************************************

                                    ---------------------
                                    Active property flags
                                    ---------------------
   (+) Dipole Moment


------------------------------------------------------------------------------
                       ORCA ELECTRIC PROPERTIES CALCULATION
------------------------------------------------------------------------------

Dipole Moment Calculation                       ... on
Quadrupole Moment Calculation                   ... off
Polarizability Calculation                      ... off
GBWName                                         ... orca6.gbw
Electron density file                           ... orca6.scfp
The origin for moment calculation is the CENTER OF MASS  = (-0.023058,  0.007709  0.108980)

-------------
DIPOLE MOMENT
-------------
                                X             Y             Z
Electronic contribution:      0.09701      -0.00254      -0.58424
Nuclear contribution   :     -0.11347       0.00250       0.67161
                        -----------------------------------------
Total Dipole Moment    :     -0.01646      -0.00005       0.08736
                        -----------------------------------------
Magnitude (a.u.)       :      0.08890
Magnitude (Debye)      :      0.22597



--------------------
Rotational spectrum 
--------------------
 
Rotational constants in cm-1:     0.265088     0.264311     0.143672 
Rotational constants in MHz :  7947.140658  7923.855444  4307.163950 

 Dipole components along the rotational axes: 
x,y,z [a.u.] :    -0.001118     0.000304     0.088894 
x,y,z [Debye]:    -0.002841     0.000771     0.225949 

 

Timings for individual modules:

Sum of individual times         ...     2022.025 sec (=  33.700 min)
GTO integral calculation        ...       40.796 sec (=   0.680 min)   2.0 %
SCF iterations                  ...     1912.053 sec (=  31.868 min)  94.6 %
SCF Gradient evaluation         ...       45.707 sec (=   0.762 min)   2.3 %
Geometry relaxation             ...       23.470 sec (=   0.391 min)   1.2 %
                             ****ORCA TERMINATED NORMALLY****
TOTAL RUN TIME: 0 days 0 hours 35 minutes 24 seconds 526 msec
