
                                 *****************
                                 * O   R   C   A *
                                 *****************

           --- An Ab Initio, DFT and Semiempirical electronic structure package ---

                  #######################################################
                  #                        -***-                        #
                  #          Department of theory and spectroscopy      #
                  #               Directorship: Frank Neese             #
                  #        Max Planck Institute fuer Kohlenforschung    #
                  #                Kaiser Wilhelm Platz 1               #
                  #                 D-45470 Muelheim/Ruhr               #
                  #                      Germany                        #
                  #                                                     #
                  #                  All rights reserved                #
                  #                        -***-                        #
                  #######################################################


                         Program Version 4.2.1 -  RELEASE  -


 With contributions from (in alphabetic order):
   Daniel Aravena         : Magnetic Suceptibility
   Michael Atanasov       : Ab Initio Ligand Field Theory (pilot matlab implementation)
   Alexander A. Auer      : GIAO ZORA, VPT2
   Ute Becker             : Parallelization
   Giovanni Bistoni       : ED, misc. LED, open-shell LED, HFLD
   Martin Brehm           : Molecular dynamics
   Dmytro Bykov           : SCF Hessian
   Vijay G. Chilkuri      : MRCI spin determinant printing, contributions to CSF-ICE
   Dipayan Datta          : RHF DLPNO-CCSD density
   Achintya Kumar Dutta   : EOM-CC, STEOM-CC
   Dmitry Ganyushin       : Spin-Orbit,Spin-Spin,Magnetic field MRCI
   Miquel Garcia          : C-PCM Hessian, Gaussian charge scheme
   Yang Guo               : DLPNO-NEVPT2, CIM, IAO-localization
   Andreas Hansen         : Spin unrestricted coupled pair/coupled cluster methods
   Benjamin Helmich-Paris : CASSCF linear response (MC-RPA)
   Lee Huntington         : MR-EOM, pCC
   Robert Izsak           : Overlap fitted RIJCOSX, COSX-SCS-MP3, EOM
   Christian Kollmar      : KDIIS, OOCD, Brueckner-CCSD(T), CCSD density
   Simone Kossmann        : Meta GGA functionals, TD-DFT gradient, OOMP2, MP2 Hessian
   Martin Krupicka        : AUTO-CI
   Lucas Lang             : DCDCAS
   Dagmar Lenk            : GEPOL surface, SMD
   Dimitrios Liakos       : Extrapolation schemes; Compound Job, initial MDCI parallelization
   Dimitrios Manganas     : Further ROCIS development; embedding schemes
   Dimitrios Pantazis     : SARC Basis sets
   Taras Petrenko         : DFT Hessian,TD-DFT gradient, ASA, ECA, R-Raman, ABS, FL, XAS/XES, NRVS
   Peter Pinski           : DLPNO-MP2, DLPNO-MP2 Gradient
   Christoph Reimann      : Effective Core Potentials
   Marius Retegan         : Local ZFS, SOC
   Christoph Riplinger    : Optimizer, TS searches, QM/MM, DLPNO-CCSD(T), (RO)-DLPNO pert. Triples
   Tobias Risthaus        : Range-separated hybrids, TD-DFT gradient, RPA, STAB
   Michael Roemelt        : Original ROCIS implementation
   Masaaki Saitow         : Open-shell DLPNO-CCSD energy and density
   Barbara Sandhoefer     : DKH picture change effects
   Avijit Sen             : IP-ROCIS
   Kantharuban Sivalingam : CASSCF convergence, NEVPT2, FIC-MRCI
   Bernardo de Souza      : ESD, SOC TD-DFT
   Georgi Stoychev        : AutoAux, RI-MP2 NMR
   Willem Van den Heuvel  : Paramagnetic NMR
   Boris Wezisla          : Elementary symmetry handling
   Frank Wennmohs         : Technical directorship


 We gratefully acknowledge several colleagues who have allowed us to
 interface, adapt or use parts of their codes:
   Stefan Grimme, W. Hujo, H. Kruse,             : VdW corrections, initial TS optimization,
                  C. Bannwarth                     DFT functionals, gCP, sTDA/sTD-DF
   Ed Valeev, F. Pavosevic, A. Kumar             : LibInt (2-el integral package), F12 methods
   Garnet Chan, S. Sharma, J. Yang, R. Olivares  : DMRG
   Ulf Ekstrom                                   : XCFun DFT Library
   Mihaly Kallay                                 : mrcc  (arbitrary order and MRCC methods)
   Andreas Klamt, Michael Diedenhofen            : otool_cosmo (COSMO solvation model)
   Jiri Pittner, Ondrej Demel                    : Mk-CCSD
   Frank Weinhold                                : gennbo (NPA and NBO analysis)
   Christopher J. Cramer and Donald G. Truhlar   : smd solvation model
   Lars Goerigk                                  : TD-DFT with DH, B97 family of functionals
   V. Asgeirsson, H. Jonsson                     : NEB implementation
   FAccTs GmbH                                   : IRC, NEB, NEB-TS, Multilevel, MM, QM/MM, CI optimization
   S Lehtola, MJT Oliveira, MAL Marques          : LibXC Library


 Your calculation uses the libint2 library for the computation of 2-el integrals
 For citations please refer to: http://libint.valeyev.net

 Your ORCA version has been built with support for libXC version: 4.2.3
 For citations please refer to: https://tddft.org/programs/libxc/

 This ORCA versions uses:
   CBLAS   interface :  Fast vector & matrix operations
   LAPACKE interface :  Fast linear algebra routines
   SCALAPACK package :  Parallel linear algebra routines


Your calculation utilizes the atom-pairwise dispersion correction
with the Becke-Johnson damping scheme (D3BJ)
Cite in your paper:
S.Grimme, S.Ehrlich, L.Goerigk, J Comput Chem, (2011), 32, 1456–1465 
S.Grimme, J.Antony, S.Ehrlich and H.Krieg, J.Chem.Phys., 132, (2010), 154104 
   

----- Orbital basis set information -----
Your calculation utilizes the basis: def2-SV(P)
   F. Weigend and R. Ahlrichs, Phys. Chem. Chem. Phys. 7, 3297 (2005).

----- AuxJ basis set information -----
Your calculation utilizes the auxiliary basis: def2/J
   F. Weigend, Phys. Chem. Chem. Phys. 8, 1057 (2006).

================================================================================
                                        WARNINGS
                       Please study these warnings very carefully!
================================================================================


WARNING: Geometry Optimization
  ===> : Switching off AutoStart
         For restart on a previous wavefunction, please use MOREAD

INFO   : the flag for use of LIBINT has been found!

================================================================================
                                       INPUT FILE
================================================================================
NAME = orca2.inp
|  1> ! UKS B3LYP def2-SV(P) def2/J D3BJ Opt
|  2> %scf Convergence VeryTight
|  3> SmearTemp 2000
|  4> maxiter 500
|  5> end
|  6> *xyz 0 2
|  7> C -0.013531 0.080692 -0.405817
|  8> C 1.100578 -0.893964 -0.035812
|  9> C 0.258437 1.320463 0.415014
| 10> C -1.378238 -0.501209 -0.149636
| 11> H 1.159985 -0.953932 1.066761
| 12> H 2.04364 -0.440969 -0.376977
| 13> H 0.854804 -1.845263 -0.529144
| 14> H -0.618758 1.9544 0.57079
| 15> H 1.094952 1.851714 -0.105926
| 16> H 0.651839 1.063777 1.425385
| 17> H -1.896545 -0.692155 -1.123748
| 18> H -1.336756 -1.494497 0.355981
| 19> H -2.006439 0.232899 0.388696
| 20> *
| 21> 
| 22>                          ****END OF INPUT****
================================================================================

                       *****************************
                       * Geometry Optimization Run *
                       *****************************

Geometry optimization settings:
Update method            Update   .... BFGS
Choice of coordinates    CoordSys .... Z-matrix Internals
Initial Hessian          InHess   .... Almoef's Model

Convergence Tolerances:
Energy Change            TolE     ....  5.0000e-06 Eh
Max. Gradient            TolMAXG  ....  3.0000e-04 Eh/bohr
RMS Gradient             TolRMSG  ....  1.0000e-04 Eh/bohr
Max. Displacement        TolMAXD  ....  4.0000e-03 bohr
RMS Displacement         TolRMSD  ....  2.0000e-03 bohr
Strict Convergence                ....  False
------------------------------------------------------------------------------
                        ORCA OPTIMIZATION COORDINATE SETUP
------------------------------------------------------------------------------

The optimization will be done in new redundant internal coordinates
Making redundant internal coordinates   ...  (new redundants) done
Evaluating the initial hessian          ...  (Almloef) done
Evaluating the coordinates              ...  done
Calculating the B-matrix                .... done
Calculating the G-matrix                .... done
Diagonalizing the G-matrix              .... done
The first mode is                       ....   18
The number of degrees of freedom        ....   33

    -----------------------------------------------------------------
                    Redundant Internal Coordinates


    -----------------------------------------------------------------
         Definition                    Initial Value    Approx d2E/dq
    -----------------------------------------------------------------
      1. B(C   1,C   0)                  1.5258         0.379369   
      2. B(C   2,C   0)                  1.5115         0.399783   
      3. B(C   3,C   0)                  1.5055         0.408691   
      4. B(H   4,C   1)                  1.1058         0.339794   
      5. B(H   5,C   1)                  1.1004         0.346553   
      6. B(H   6,C   1)                  1.0994         0.347836   
      7. B(H   7,C   2)                  1.0934         0.355577   
      8. B(H   8,C   2)                  1.1195         0.323071   
      9. B(H   9,C   2)                  1.1142         0.329435   
     10. B(H  10,C   3)                  1.1198         0.322736   
     11. B(H  11,C   3)                  1.1153         0.328088   
     12. B(H  12,C   3)                  1.1061         0.339478   
     13. A(C   1,C   0,C   3)          111.9450         0.369965   
     14. A(C   2,C   0,C   3)          112.8118         0.373317   
     15. A(C   1,C   0,C   2)          105.1213         0.368567   
     16. A(H   4,C   1,H   5)          106.5831         0.286484   
     17. A(H   5,C   1,H   6)          114.1200         0.287532   
     18. A(H   4,C   1,H   6)          114.3615         0.286649   
     19. A(C   0,C   1,H   4)          108.4006         0.322058   
     20. A(C   0,C   1,H   5)          106.7154         0.323099   
     21. A(C   0,C   1,H   6)          106.3003         0.323295   
     22. A(H   7,C   2,H   9)          106.7156         0.286249   
     23. A(C   0,C   2,H   9)          111.5308         0.323192   
     24. A(H   7,C   2,H   8)          112.9921         0.285380   
     25. A(C   0,C   2,H   8)          105.7216         0.322161   
     26. A(H   8,C   2,H   9)          105.5125         0.282015   
     27. A(C   0,C   2,H   7)          114.1134         0.327275   
     28. A(H  11,C   3,H  12)          113.0521         0.284010   
     29. A(H  10,C   3,H  12)          105.8831         0.283286   
     30. A(C   0,C   3,H  12)          109.9453         0.325969   
     31. A(H  10,C   3,H  11)          105.0524         0.281791   
     32. A(C   0,C   3,H  11)          112.8073         0.324145   
     33. A(C   0,C   3,H  10)          109.7209         0.323272   
     34. D(H   6,C   1,C   0,C   2)    173.3662         0.010742   
     35. D(H   4,C   1,C   0,C   2)     49.9852         0.010742   
     36. D(H   6,C   1,C   0,C   3)     50.5560         0.010742   
     37. D(H   5,C   1,C   0,C   2)    -64.4685         0.010742   
     38. D(H   4,C   1,C   0,C   3)    -72.8250         0.010742   
     39. D(H   5,C   1,C   0,C   3)    172.7214         0.010742   
     40. D(H   7,C   2,C   0,C   1)   -157.6581         0.011862   
     41. D(H   9,C   2,C   0,C   3)     85.6134         0.011862   
     42. D(H   9,C   2,C   0,C   1)    -36.6372         0.011862   
     43. D(H   8,C   2,C   0,C   3)   -160.1978         0.011862   
     44. D(H   8,C   2,C   0,C   1)     77.5515         0.011862   
     45. D(H   7,C   2,C   0,C   3)    -35.4075         0.011862   
     46. D(H  11,C   3,C   0,C   1)      5.6767         0.012374   
     47. D(H  10,C   3,C   0,C   2)    130.6003         0.012374   
     48. D(H  10,C   3,C   0,C   1)   -111.0683         0.012374   
     49. D(H  12,C   3,C   0,C   2)     14.5371         0.012374   
     50. D(H  12,C   3,C   0,C   1)    132.8685         0.012374   
     51. D(H  11,C   3,C   0,C   2)   -112.6547         0.012374   
    -----------------------------------------------------------------

Number of atoms                         .... 13
Number of degrees of freedom            .... 51

         *************************************************************
         *                GEOMETRY OPTIMIZATION CYCLE   1            *
         *************************************************************
---------------------------------
CARTESIAN COORDINATES (ANGSTROEM)
---------------------------------
  C     -0.013531    0.080692   -0.405817
  C      1.100578   -0.893964   -0.035812
  C      0.258437    1.320463    0.415014
  C     -1.378238   -0.501209   -0.149636
  H      1.159985   -0.953932    1.066761
  H      2.043640   -0.440969   -0.376977
  H      0.854804   -1.845263   -0.529144
  H     -0.618758    1.954400    0.570790
  H      1.094952    1.851714   -0.105926
  H      0.651839    1.063777    1.425385
  H     -1.896545   -0.692155   -1.123748
  H     -1.336756   -1.494497    0.355981
  H     -2.006439    0.232899    0.388696

----------------------------
CARTESIAN COORDINATES (A.U.)
----------------------------
  NO LB      ZA    FRAG     MASS         X           Y           Z
   0 C     6.0000    0    12.011   -0.025570    0.152486   -0.766883
   1 C     6.0000    0    12.011    2.079791   -1.689347   -0.067675
   2 C     6.0000    0    12.011    0.488375    2.495313    0.784263
   3 C     6.0000    0    12.011   -2.604492   -0.947148   -0.282771
   4 H     1.0000    0     1.008    2.192054   -1.802670    2.015886
   5 H     1.0000    0     1.008    3.861920   -0.833311   -0.712383
   6 H     1.0000    0     1.008    1.615345   -3.487042   -0.999937
   7 H     1.0000    0     1.008   -1.169283    3.693281    1.078637
   8 H     1.0000    0     1.008    2.069159    3.499232   -0.200171
   9 H     1.0000    0     1.008    1.231797    2.010247    2.693587
  10 H     1.0000    0     1.008   -3.583951   -1.307983   -2.123576
  11 H     1.0000    0     1.008   -2.526103   -2.824190    0.672707
  12 H     1.0000    0     1.008   -3.791620    0.440115    0.734529

--------------------------------
INTERNAL COORDINATES (ANGSTROEM)
--------------------------------
 C      0   0   0     0.000000000000     0.00000000     0.00000000
 C      1   0   0     1.525810237953     0.00000000     0.00000000
 C      1   2   0     1.511543005020   105.12130362     0.00000000
 C      1   2   3     1.505543979567   111.94497505   237.18980972
 H      2   1   3     1.105799517545   108.40056599    49.98515421
 H      2   1   3     1.100438077810   106.71536795   295.53154483
 H      2   1   3     1.099432175580   106.30034026   173.36619127
 H      3   1   2     1.093441059303   114.11336044   202.34192611
 H      3   1   2     1.119537160538   105.72157426    77.55153214
 H      3   1   2     1.114227263103   111.53080745   323.36282183
 H      4   1   2     1.119819945218   109.72086947   248.93167747
 H      4   1   2     1.115343157040   112.80734756     5.67672109
 H      4   1   2     1.106052618228   109.94533839   132.86852033

---------------------------
INTERNAL COORDINATES (A.U.)
---------------------------
 C      0   0   0     0.000000000000     0.00000000     0.00000000
 C      1   0   0     2.883363482064     0.00000000     0.00000000
 C      1   2   0     2.856402319133   105.12130362     0.00000000
 C      1   2   3     2.845065803956   111.94497505   237.18980972
 H      2   1   3     2.089658247182   108.40056599    49.98515421
 H      2   1   3     2.079526594399   106.71536795   295.53154483
 H      2   1   3     2.077625714668   106.30034026   173.36619127
 H      3   1   2     2.066304145668   114.11336044   202.34192611
 H      3   1   2     2.115618630165   105.72157426    77.55153214
 H      3   1   2     2.105584378212   111.53080745   323.36282183
 H      4   1   2     2.116153015766   109.72086947   248.93167747
 H      4   1   2     2.107693112150   112.80734756     5.67672109
 H      4   1   2     2.090136538157   109.94533839   132.86852033

---------------------
BASIS SET INFORMATION
---------------------
There are 2 groups of distinct atoms

 Group   1 Type C   : 7s4p1d contracted to 3s2p1d pattern {511/31/1}
 Group   2 Type H   : 4s contracted to 2s pattern {31}

Atom   0C    basis set group =>   1
Atom   1C    basis set group =>   1
Atom   2C    basis set group =>   1
Atom   3C    basis set group =>   1
Atom   4H    basis set group =>   2
Atom   5H    basis set group =>   2
Atom   6H    basis set group =>   2
Atom   7H    basis set group =>   2
Atom   8H    basis set group =>   2
Atom   9H    basis set group =>   2
Atom  10H    basis set group =>   2
Atom  11H    basis set group =>   2
Atom  12H    basis set group =>   2
---------------------------------
AUXILIARY/J BASIS SET INFORMATION
---------------------------------
There are 2 groups of distinct atoms

 Group   1 Type C   : 12s5p4d2f1g contracted to 6s4p3d1f1g pattern {711111/2111/211/2/1}
 Group   2 Type H   : 5s2p1d contracted to 3s1p1d pattern {311/2/1}

Atom   0C    basis set group =>   1
Atom   1C    basis set group =>   1
Atom   2C    basis set group =>   1
Atom   3C    basis set group =>   1
Atom   4H    basis set group =>   2
Atom   5H    basis set group =>   2
Atom   6H    basis set group =>   2
Atom   7H    basis set group =>   2
Atom   8H    basis set group =>   2
Atom   9H    basis set group =>   2
Atom  10H    basis set group =>   2
Atom  11H    basis set group =>   2
Atom  12H    basis set group =>   2
------------------------------------------------------------------------------
                           ORCA GTO INTEGRAL CALCULATION
------------------------------------------------------------------------------

                         BASIS SET STATISTICS AND STARTUP INFO

 # of primitive gaussian shells          ...   84
 # of primitive gaussian functions       ...  132
 # of contracted shells                  ...   42
 # of contracted basis functions         ...   74
 Highest angular momentum                ...    2
 Maximum contraction depth               ...    5
 Integral package used                   ... LIBINT
 Integral threshhold            Thresh   ...  1.000e-12
 Primitive cut-off              TCut     ...  1.000e-14


------------------------------ INTEGRAL EVALUATION ----------------------------


 * One electron integrals 
 Pre-screening matrix                    ... done
 Shell pair data                         ... done (   0.000 sec)

-------------------------------------------------------------------------------
                                 ORCA SCF
-------------------------------------------------------------------------------

------------
SCF SETTINGS
------------
Hamiltonian:
 Density Functional     Method          .... DFT(GTOs)
 Exchange Functional    Exchange        .... B88
   X-Alpha parameter    XAlpha          ....  0.666667
   Becke's b parameter  XBeta           ....  0.004200
 Correlation Functional Correlation     .... LYP
 LDA part of GGA corr.  LDAOpt          .... VWN-5
 Gradients option       PostSCFGGA      .... off
 Hybrid DFT is turned on
   Fraction HF Exchange ScalHFX         ....  0.200000
   Scaling of DF-GGA-X  ScalDFX         ....  0.720000
   Scaling of DF-GGA-C  ScalDFC         ....  0.810000
   Scaling of DF-LDA-C  ScalLDAC        ....  1.000000
   Perturbative correction              ....  0.000000
   Density functional embedding theory  .... OFF
   NL short-range parameter             ....  4.800000


General Settings:
 Integral files         IntName         .... orca2
 Hartree-Fock type      HFTyp           .... UHF
 Total Charge           Charge          ....    0
 Multiplicity           Mult            ....    2
 Number of Electrons    NEL             ....   33
 Basis Dimension        Dim             ....   74
 Nuclear Repulsion      ENuc            ....    126.4956508935 Eh

Convergence Acceleration:
 DIIS                   CNVDIIS         .... on
   Start iteration      DIISMaxIt       ....    12
   Startup error        DIISStart       ....  0.200000
   # of expansion vecs  DIISMaxEq       ....     5
   Bias factor          DIISBfac        ....   1.050
   Max. coefficient     DIISMaxC        ....  10.000
 Newton-Raphson         CNVNR           .... off
 SOSCF                  CNVSOSCF        .... off
 Level Shifting         CNVShift        .... on
   Level shift para.    LevelShift      ....    0.2500
   Turn off err/grad.   ShiftErr        ....    0.0010
 Zerner damping         CNVZerner       .... off
 Static damping         CNVDamp         .... on
   Fraction old density DampFac         ....    0.7000
   Max. Damping (<1)    DampMax         ....    0.9800
   Min. Damping (>=0)   DampMin         ....    0.0000
   Turn off err/grad.   DampErr         ....    0.1000
 Fernandez-Rico         CNVRico         .... off

SCF Procedure:
 Maximum # iterations   MaxIter         ....   500
 SCF integral mode      SCFMode         .... Direct
   Integral package                     .... LIBINT
 Reset frequency        DirectResetFreq ....    20
 Integral Threshold     Thresh          ....  1.000e-12 Eh
 Primitive CutOff       TCut            ....  1.000e-14 Eh

Convergence Tolerance:
 Convergence Check Mode ConvCheckMode   .... Total+1el-Energy
 Convergence forced     ConvForced      .... 0
 Energy Change          TolE            ....  1.000e-09 Eh
 1-El. energy change                    ....  1.000e-06 Eh
 DIIS Error             TolErr          ....  1.000e-08


Diagonalization of the overlap matrix:
Smallest eigenvalue                        ... 2.046e-03
Time for diagonalization                   ...    0.002 sec
Threshold for overlap eigenvalues          ... 1.000e-08
Number of eigenvalues below threshold      ... 0
Time for construction of square roots      ...    0.301 sec
Total time needed                          ...    0.304 sec

-------------------
DFT GRID GENERATION
-------------------

General Integration Accuracy     IntAcc      ...  4.340
Radial Grid Type                 RadialGrid  ... Gauss-Chebyshev
Angular Grid (max. acc.)         AngularGrid ... Lebedev-110
Angular grid pruning method      GridPruning ... 3 (G Style)
Weight generation scheme         WeightScheme... Becke
Basis function cutoff            BFCut       ...    1.0000e-12
Integration weight cutoff        WCut        ...    1.0000e-14
Grids for H and He will be reduced by one unit

# of grid points (after initial pruning)     ...  13770 (   0.0 sec)
# of grid points (after weights+screening)   ...  12881 (   0.0 sec)
nearest neighbour list constructed           ...    0.0 sec
Grid point re-assignment to atoms done       ...    0.0 sec
Grid point division into batches done        ...    0.0 sec
Reduced shell lists constructed in    0.1 sec

Total number of grid points                  ...    12881
Total number of batches                      ...      209
Average number of points per batch           ...       61
Average number of grid points per atom       ...      991
Average number of shells per batch           ...    37.25 (88.70%)
Average number of basis functions per batch  ...    66.33 (89.63%)
Average number of large shells per batch     ...    32.50 (87.24%)
Average number of large basis fcns per batch ...    57.78 (87.11%)
Maximum spatial batch extension              ...  20.69, 24.50, 25.60 au
Average spatial batch extension              ...   4.04,  3.93,  4.04 au

Time for grid setup =    2.157 sec

------------------------------
INITIAL GUESS: MODEL POTENTIAL
------------------------------
Loading Hartree-Fock densities                     ... done
Calculating cut-offs                               ... done
Setting up the integral package                    ... done
Initializing the effective Hamiltonian             ... done
Starting the Coulomb interaction                   ... done (   0.0 sec)
Reading the grid                                   ... done
Mapping shells                                     ... done
Starting the XC term evaluation                    ... done (   0.1 sec)
  promolecular density results
     # of electrons  =     32.988982353
     EX              =    -23.184067071
     EC              =     -1.031957862
     EX+EC           =    -24.216024933
Transforming the Hamiltonian                       ... done (   0.0 sec)
Diagonalizing the Hamiltonian                      ... done (   0.0 sec)
Back transforming the eigenvectors                 ... done (   0.0 sec)
Now organizing SCF variables                       ... done
                      ------------------
                      INITIAL GUESS DONE (   2.4 sec)
                      ------------------
--------------
SCF ITERATIONS
--------------
ITER       Energy         Delta-E        Max-DP      RMS-DP      [F,P]     Damp
               ***  Starting incremental Fock matrix formation  ***
  0   -157.3539057155   0.000000000000 0.04379729  0.00227356  0.1714389 0.7000
  1   -157.4289481917  -0.075042476206 0.02723616  0.00164993  0.0894380 0.7000
                               ***Turning on DIIS***
  2   -157.4593559920  -0.030407800210 0.03864996  0.00267928  0.0336635 0.0000
  3   -157.4999642361  -0.040608244152 0.01932931  0.00117828  0.0489477 0.0000
  4   -157.5136317865  -0.013667550439 0.00428479  0.00035247  0.0108290 0.0000
  5   -157.5144070667  -0.000775280182 0.00176655  0.00013495  0.0020910 0.0000
  6   -157.5144671355  -0.000060068756 0.00151484  0.00008796  0.0004800 0.0000
  7   -157.5144770866  -0.000009951117 0.00033300  0.00001213  0.0001972 0.0000
  8   -157.5144774991  -0.000000412473 0.00016869  0.00000472  0.0001361 0.0000
  9   -157.5144776383  -0.000000139261 0.00003854  0.00000176  0.0000192 0.0000
 10   -157.5144776521  -0.000000013808 0.00001466  0.00000063  0.0000047 0.0000
 11   -157.5144776543  -0.000000002199 0.00000584  0.00000029  0.0000014 0.0000
 12   -157.5144776548  -0.000000000464 0.00000187  0.00000009  0.0000009 0.0000
 13   -157.5144776549  -0.000000000068 0.00000169  0.00000009  0.0000005 0.0000
                 **** Energy Check signals convergence ****

 Fermi smearing  (ALPHA): E(HOMO(Eh)) = -0.316954 MUE = -0.073153 gap=   7.107 eV
 Fermi smearing   (BETA): E(HOMO(Eh)) = -0.311161 MUE = -0.181919 gap=   7.016 eV

N_FOD(alpha) =  0.000000
 N_FOD(beta) =  0.000000
       N_FOD =  0.000000

               *****************************************************
               *                     SUCCESS                       *
               *           SCF CONVERGED AFTER  14 CYCLES          *
               *****************************************************

Setting up the final grid:

General Integration Accuracy     IntAcc      ...  4.670
Radial Grid Type                 RadialGrid  ... Gauss-Chebyshev
Angular Grid (max. acc.)         AngularGrid ... Lebedev-302
Angular grid pruning method      GridPruning ... 3 (G Style)
Weight generation scheme         WeightScheme... Becke
Basis function cutoff            BFCut       ...    1.0000e-12
Integration weight cutoff        WCut        ...    1.0000e-14
Grids for H and He will be reduced by one unit

# of grid points (after initial pruning)     ...  55394 (   0.0 sec)
# of grid points (after weights+screening)   ...  51180 (   0.1 sec)
nearest neighbour list constructed           ...    0.0 sec
Grid point re-assignment to atoms done       ...    0.0 sec
Grid point division into batches done        ...    0.2 sec
Reduced shell lists constructed in    0.4 sec

Total number of grid points                  ...    51180
Total number of batches                      ...      804
Average number of points per batch           ...       63
Average number of grid points per atom       ...     3937
Average number of shells per batch           ...    35.01 (83.36%)
Average number of basis functions per batch  ...    62.28 (84.16%)
Average number of large shells per batch     ...    29.76 (85.00%)
Average number of large basis fcns per batch ...    52.46 (84.23%)
Maximum spatial batch extension              ...  19.90, 20.53, 18.74 au
Average spatial batch extension              ...   2.60,  2.63,  2.58 au

Final grid set up in    1.4 sec
Final integration                            ... done (   2.3 sec)
Change in XC energy                          ...    -0.000151980
Integrated number of electrons               ...    33.000044212
Previous integrated no of electrons          ...    32.996672043

----------------
TOTAL SCF ENERGY
----------------

Total Energy       :         -157.51462964 Eh           -4286.19098 eV

Components:
Nuclear Repulsion  :          126.49565089 Eh            3442.12165 eV
Electronic Energy  :         -284.01028053 Eh           -7728.31263 eV
One Electron Energy:         -460.55503453 Eh          -12532.33962 eV
Two Electron Energy:          176.54475401 Eh            4804.02699 eV

Virial components:
Potential Energy   :         -313.37772772 Eh           -8527.44150 eV
Kinetic Energy     :          155.86309809 Eh            4241.25052 eV
Virial Ratio       :            2.01059604


DFT components:
N(Alpha)           :       17.000024009492 electrons
N(Beta)            :       16.000020202113 electrons
N(Total)           :       33.000044211604 electrons
E(X)               :      -18.881078089125 Eh       
E(C)               :       -1.221997987174 Eh       
E(XC)              :      -20.103076076299 Eh       
DFET-embed. en.    :        0.000000000000 Eh       

---------------
SCF CONVERGENCE
---------------

  Last Energy change         ...   -2.2197e-11  Tolerance :   1.0000e-09
  Last MAX-Density change    ...    2.4008e-07  Tolerance :   1.0000e-08
  Last RMS-Density change    ...    1.2246e-08  Tolerance :   1.0000e-09
  Last DIIS Error            ...    1.5990e-07  Tolerance :   1.0000e-08

             **** THE GBW FILE WAS UPDATED (orca2.gbw) ****
             **** DENSITY FILE WAS UPDATED (orca2.scfp) ****
             **** ENERGY FILE WAS UPDATED (orca2.en.tmp) ****
             **** THE GBW FILE WAS UPDATED (orca2.gbw) ****
             **** DENSITY FILE WAS UPDATED (orca2.scfp) ****
----------------
ORBITAL ENERGIES
----------------
                 SPIN UP ORBITALS
  NO   OCC          E(Eh)            E(eV) 
   0   1.0000     -10.190998      -277.3112 
   1   1.0000     -10.170376      -276.7500 
   2   1.0000     -10.167061      -276.6598 
   3   1.0000     -10.166716      -276.6504 
   4   1.0000      -0.798590       -21.7307 
   5   1.0000      -0.678151       -18.4534 
   6   1.0000      -0.667917       -18.1750 
   7   1.0000      -0.523909       -14.2563 
   8   1.0000      -0.446498       -12.1498 
   9   1.0000      -0.440733       -11.9929 
  10   1.0000      -0.436546       -11.8790 
  11   1.0000      -0.389836       -10.6080 
  12   1.0000      -0.377666       -10.2768 
  13   1.0000      -0.364736        -9.9250 
  14   1.0000      -0.331635        -9.0242 
  15   1.0000      -0.316954        -8.6248 
  16   1.0000      -0.203743        -5.5441 
  17   0.0000       0.057437         1.5629 
  18   0.0000       0.098128         2.6702 
  19   0.0000       0.110166         2.9978 
  20   0.0000       0.118586         3.2269 
  21   0.0000       0.122292         3.3277 
  22   0.0000       0.130409         3.5486 
  23   0.0000       0.147840         4.0229 
  24   0.0000       0.168313         4.5800 
  25   0.0000       0.177759         4.8371 
  26   0.0000       0.205895         5.6027 
  27   0.0000       0.260544         7.0898 
  28   0.0000       0.283579         7.7166 
  29   0.0000       0.420991        11.4557 
  30   0.0000       0.433628        11.7996 
  31   0.0000       0.448840        12.2136 
  32   0.0000       0.465895        12.6776 
  33   0.0000       0.476779        12.9738 
  34   0.0000       0.520179        14.1548 
  35   0.0000       0.576955        15.6997 
  36   0.0000       0.592990        16.1361 
  37   0.0000       0.611776        16.6473 
  38   0.0000       0.658670        17.9233 
  39   0.0000       0.663000        18.0412 
  40   0.0000       0.680613        18.5204 
  41   0.0000       0.685125        18.6432 
  42   0.0000       0.695407        18.9230 
  43   0.0000       0.697331        18.9753 
  44   0.0000       0.711363        19.3572 
  45   0.0000       0.723318        19.6825 
  46   0.0000       0.729958        19.8632 
  47   0.0000       0.733188        19.9511 
  48   0.0000       0.752548        20.4779 
  49   0.0000       0.758177        20.6310 
  50   0.0000       0.801041        21.7974 
  51   0.0000       0.889751        24.2114 
  52   0.0000       0.972454        26.4618 
  53   0.0000       1.089415        29.6445 
  54   0.0000       1.383359        37.6431 
  55   0.0000       1.399533        38.0832 
  56   0.0000       1.740059        47.3494 
  57   0.0000       1.760475        47.9049 
  58   0.0000       1.782855        48.5140 
  59   0.0000       1.810757        49.2732 
  60   0.0000       1.865003        50.7493 
  61   0.0000       1.946627        52.9704 
  62   0.0000       2.011458        54.7345 
  63   0.0000       2.065910        56.2163 
  64   0.0000       2.084492        56.7219 
  65   0.0000       2.129472        57.9459 
  66   0.0000       2.144917        58.3662 
  67   0.0000       2.164811        58.9075 
  68   0.0000       2.197994        59.8105 
  69   0.0000       2.387261        64.9607 
  70   0.0000       2.423777        65.9543 
  71   0.0000       2.478264        67.4370 
  72   0.0000       2.683313        73.0167 
  73   0.0000       2.710631        73.7600 

                 SPIN DOWN ORBITALS
  NO   OCC          E(Eh)            E(eV) 
   0   1.0000     -10.176082      -276.9053 
   1   1.0000     -10.170650      -276.7575 
   2   1.0000     -10.167456      -276.6705 
   3   1.0000     -10.167113      -276.6612 
   4   1.0000      -0.784169       -21.3383 
   5   1.0000      -0.675240       -18.3742 
   6   1.0000      -0.665773       -18.1166 
   7   1.0000      -0.505507       -13.7556 
   8   1.0000      -0.438415       -11.9299 
   9   1.0000      -0.433848       -11.8056 
  10   1.0000      -0.429399       -11.6845 
  11   1.0000      -0.382945       -10.4205 
  12   1.0000      -0.372311       -10.1311 
  13   1.0000      -0.363385        -9.8882 
  14   1.0000      -0.325460        -8.8562 
  15   1.0000      -0.311161        -8.4671 
  16   0.0000      -0.053309        -1.4506 
  17   0.0000       0.059796         1.6271 
  18   0.0000       0.099998         2.7211 
  19   0.0000       0.110780         3.0145 
  20   0.0000       0.120945         3.2911 
  21   0.0000       0.128089         3.4855 
  22   0.0000       0.134167         3.6509 
  23   0.0000       0.150370         4.0918 
  24   0.0000       0.170575         4.6416 
  25   0.0000       0.180127         4.9015 
  26   0.0000       0.213663         5.8141 
  27   0.0000       0.271653         7.3920 
  28   0.0000       0.293840         7.9958 
  29   0.0000       0.427261        11.6264 
  30   0.0000       0.437268        11.8987 
  31   0.0000       0.453671        12.3450 
  32   0.0000       0.474060        12.8998 
  33   0.0000       0.488271        13.2865 
  34   0.0000       0.567232        15.4352 
  35   0.0000       0.583251        15.8711 
  36   0.0000       0.601202        16.3595 
  37   0.0000       0.622162        16.9299 
  38   0.0000       0.661353        17.9963 
  39   0.0000       0.667049        18.1513 
  40   0.0000       0.684497        18.6261 
  41   0.0000       0.688879        18.7454 
  42   0.0000       0.697259        18.9734 
  43   0.0000       0.699053        19.0222 
  44   0.0000       0.713929        19.4270 
  45   0.0000       0.726921        19.7805 
  46   0.0000       0.733609        19.9625 
  47   0.0000       0.738578        20.0977 
  48   0.0000       0.755278        20.5522 
  49   0.0000       0.762879        20.7590 
  50   0.0000       0.810141        22.0451 
  51   0.0000       0.903584        24.5878 
  52   0.0000       0.975776        26.5522 
  53   0.0000       1.092231        29.7211 
  54   0.0000       1.398694        38.0604 
  55   0.0000       1.416006        38.5315 
  56   0.0000       1.751879        47.6711 
  57   0.0000       1.783561        48.5332 
  58   0.0000       1.791658        48.7535 
  59   0.0000       1.816821        49.4382 
  60   0.0000       1.875693        51.0402 
  61   0.0000       1.959627        53.3241 
  62   0.0000       2.018665        54.9307 
  63   0.0000       2.073396        56.4200 
  64   0.0000       2.095675        57.0262 
  65   0.0000       2.130550        57.9752 
  66   0.0000       2.145177        58.3732 
  67   0.0000       2.166417        58.9512 
  68   0.0000       2.201801        59.9141 
  69   0.0000       2.412801        65.6557 
  70   0.0000       2.446569        66.5745 
  71   0.0000       2.502025        68.0836 
  72   0.0000       2.698412        73.4275 
  73   0.0000       2.724950        74.1496 

                    ********************************
                    * MULLIKEN POPULATION ANALYSIS *
                    ********************************

------------------------------------------
FOD BASED MULLIKEN REDUCED ORBITAL CHARGES
------------------------------------------
  0 C s       :     0.000000  s :     0.000000
      pz      :     0.000000  p :     0.000000
      px      :     0.000000
      py      :     0.000000
      dz2     :     0.000000  d :     0.000000
      dxz     :     0.000000
      dyz     :     0.000000
      dx2y2   :     0.000000
      dxy     :     0.000000
  1 C s       :    -0.000000  s :    -0.000000
      pz      :     0.000000  p :     0.000000
      px      :     0.000000
      py      :     0.000000
      dz2     :     0.000000  d :     0.000000
      dxz     :     0.000000
      dyz     :     0.000000
      dx2y2   :     0.000000
      dxy     :     0.000000
  2 C s       :    -0.000000  s :    -0.000000
      pz      :     0.000000  p :     0.000000
      px      :     0.000000
      py      :     0.000000
      dz2     :     0.000000  d :     0.000000
      dxz     :     0.000000
      dyz     :     0.000000
      dx2y2   :     0.000000
      dxy     :     0.000000
  3 C s       :    -0.000000  s :    -0.000000
      pz      :     0.000000  p :     0.000000
      px      :     0.000000
      py      :     0.000000
      dz2     :     0.000000  d :     0.000000
      dxz     :     0.000000
      dyz     :     0.000000
      dx2y2   :     0.000000
      dxy     :     0.000000
  4 H s       :     0.000000  s :     0.000000
  5 H s       :     0.000000  s :     0.000000
  6 H s       :     0.000000  s :     0.000000
  7 H s       :     0.000000  s :     0.000000
  8 H s       :     0.000000  s :     0.000000
  9 H s       :     0.000000  s :     0.000000
 10 H s       :     0.000000  s :     0.000000
 11 H s       :     0.000000  s :     0.000000
 12 H s       :     0.000000  s :     0.000000


                     *******************************
                     * LOEWDIN POPULATION ANALYSIS *
                     *******************************

-------------------------------------------
LOEWDIN ATOMIC CHARGES AND SPIN POPULATIONS
-------------------------------------------
   0 C :   -0.073484    0.841164
   1 C :   -0.314659   -0.011261
   2 C :   -0.320052   -0.010698
   3 C :   -0.319798   -0.004775
   4 H :    0.114876    0.044141
   5 H :    0.113171    0.009954
   6 H :    0.110910    0.002818
   7 H :    0.108000    0.000926
   8 H :    0.116845    0.017389
   9 H :    0.112385    0.046494
  10 H :    0.121211    0.031361
  11 H :    0.116110    0.024537
  12 H :    0.114486    0.007949

----------------------------------------------------
LOEWDIN REDUCED ORBITAL CHARGES AND SPIN POPULATIONS
----------------------------------------------------
CHARGE
  0 C s       :     2.942810  s :     2.942810
      pz      :     0.969115  p :     3.037977
      px      :     1.035575
      py      :     1.033287
      dz2     :     0.010472  d :     0.092697
      dxz     :     0.011905
      dyz     :     0.018288
      dx2y2   :     0.023075
      dxy     :     0.028956
  1 C s       :     2.959686  s :     2.959686
      pz      :     1.097542  p :     3.278597
      px      :     1.090947
      py      :     1.090108
      dz2     :     0.022245  d :     0.076376
      dxz     :     0.008118
      dyz     :     0.012098
      dx2y2   :     0.016482
      dxy     :     0.017433
  2 C s       :     2.959558  s :     2.959558
      pz      :     1.089939  p :     3.283702
      px      :     1.104879
      py      :     1.088884
      dz2     :     0.018470  d :     0.076793
      dxz     :     0.012445
      dyz     :     0.014682
      dx2y2   :     0.008497
      dxy     :     0.022700
  3 C s       :     2.958373  s :     2.958373
      pz      :     1.108877  p :     3.286236
      px      :     1.081336
      py      :     1.096023
      dz2     :     0.009115  d :     0.075189
      dxz     :     0.018790
      dyz     :     0.014580
      dx2y2   :     0.016343
      dxy     :     0.016360
  4 H s       :     0.885124  s :     0.885124
  5 H s       :     0.886829  s :     0.886829
  6 H s       :     0.889090  s :     0.889090
  7 H s       :     0.892000  s :     0.892000
  8 H s       :     0.883155  s :     0.883155
  9 H s       :     0.887615  s :     0.887615
 10 H s       :     0.878789  s :     0.878789
 11 H s       :     0.883890  s :     0.883890
 12 H s       :     0.885514  s :     0.885514

SPIN
  0 C s       :     0.091479  s :     0.091479
      pz      :     0.673226  p :     0.752351
      px      :     0.021402
      py      :     0.057723
      dz2     :     0.000194  d :    -0.002666
      dxz     :    -0.000531
      dyz     :    -0.001180
      dx2y2   :    -0.000262
      dxy     :    -0.000886
  1 C s       :    -0.000305  s :    -0.000305
      pz      :    -0.008521  p :    -0.021440
      px      :    -0.007749
      py      :    -0.005171
      dz2     :     0.004402  d :     0.010484
      dxz     :     0.002643
      dyz     :     0.002305
      dx2y2   :     0.000527
      dxy     :     0.000607
  2 C s       :    -0.000377  s :    -0.000377
      pz      :    -0.009072  p :    -0.021958
      px      :    -0.003370
      py      :    -0.009516
      dz2     :     0.007358  d :     0.011638
      dxz     :     0.001410
      dyz     :     0.001148
      dx2y2   :     0.000846
      dxy     :     0.000876
  3 C s       :    -0.000900  s :    -0.000900
      pz      :    -0.003642  p :    -0.016052
      px      :    -0.007437
      py      :    -0.004973
      dz2     :     0.000352  d :     0.012177
      dxz     :     0.007529
      dyz     :     0.002269
      dx2y2   :     0.001622
      dxy     :     0.000405
  4 H s       :     0.044141  s :     0.044141
  5 H s       :     0.009954  s :     0.009954
  6 H s       :     0.002818  s :     0.002818
  7 H s       :     0.000926  s :     0.000926
  8 H s       :     0.017389  s :     0.017389
  9 H s       :     0.046494  s :     0.046494
 10 H s       :     0.031361  s :     0.031361
 11 H s       :     0.024537  s :     0.024537
 12 H s       :     0.007949  s :     0.007949


                      *****************************
                      * MAYER POPULATION ANALYSIS *
                      *****************************

  NA   - Mulliken gross atomic population
  ZA   - Total nuclear charge
  QA   - Mulliken gross atomic charge
  VA   - Mayer's total valence
  BVA  - Mayer's bonded valence
  FA   - Mayer's free valence

  ATOM       NA         ZA         QA         VA         BVA        FA
  0 C      6.1043     6.0000    -0.1043     4.1210     3.3902     0.7308
  1 C      6.2331     6.0000    -0.2331     3.9469     3.9446     0.0024
  2 C      6.2618     6.0000    -0.2618     3.9329     3.9304     0.0026
  3 C      6.2530     6.0000    -0.2530     3.9055     3.9031     0.0024
  4 H      0.9047     1.0000     0.0953     0.9618     0.9586     0.0032
  5 H      0.9115     1.0000     0.0885     0.9581     0.9580     0.0001
  6 H      0.9066     1.0000     0.0934     0.9570     0.9570     0.0000
  7 H      0.9050     1.0000     0.0950     0.9588     0.9588     0.0000
  8 H      0.9024     1.0000     0.0976     0.9550     0.9547     0.0003
  9 H      0.9110     1.0000     0.0890     0.9604     0.9567     0.0037
 10 H      0.8973     1.0000     0.1027     0.9491     0.9480     0.0011
 11 H      0.9032     1.0000     0.0968     0.9642     0.9632     0.0011
 12 H      0.9062     1.0000     0.0938     0.9660     0.9659     0.0001

  Mayer bond orders larger than 0.100000
B(  0-C ,  1-C ) :   1.0962 B(  0-C ,  2-C ) :   1.0977 B(  0-C ,  3-C ) :   1.0852 
B(  1-C ,  4-H ) :   0.9315 B(  1-C ,  5-H ) :   0.9594 B(  1-C ,  6-H ) :   0.9534 
B(  2-C ,  7-H ) :   0.9502 B(  2-C ,  8-H ) :   0.9543 B(  2-C ,  9-H ) :   0.9325 
B(  3-C , 10-H ) :   0.9427 B(  3-C , 11-H ) :   0.9436 B(  3-C , 12-H ) :   0.9522 


-------
TIMINGS
-------

Total SCF time: 0 days 0 hours 1 min 59 sec 

Total time                  ....     119.257 sec
Sum of individual times     ....     102.997 sec  ( 86.4%)

Fock matrix formation       ....      88.921 sec  ( 74.6%)
  XC integration            ....      39.656 sec  ( 44.6% of F)
    Basis function eval.    ....       0.922 sec  (  2.3% of XC)
    Density eval.           ....       0.639 sec  (  1.6% of XC)
    XC-Functional eval.     ....       0.402 sec  (  1.0% of XC)
    XC-Potential eval.      ....       0.928 sec  (  2.3% of XC)
Diagonalization             ....       0.049 sec  (  0.0%)
Density matrix formation    ....       4.284 sec  (  3.6%)
Population analysis         ....       2.638 sec  (  2.2%)
Initial guess               ....       0.259 sec  (  0.2%)
Orbital Transformation      ....       0.000 sec  (  0.0%)
Orbital Orthonormalization  ....       0.000 sec  (  0.0%)
DIIS solution               ....       3.332 sec  (  2.8%)
Grid generation             ....       3.514 sec  (  2.9%)


-------------------------------------------------------------------------------
                          DFT DISPERSION CORRECTION                            
                                                                               
                              DFTD3 V3.1  Rev 1                                
                          USING Becke-Johnson damping                          
-------------------------------------------------------------------------------
The B3LYP functional is recognized
Active option DFTDOPT                   ...         4   

molecular C6(AA) [au] = 1132.639261 


            DFT-D V3
 parameters
 s6 scaling factor         :     1.0000 
 a1 scaling factor         :     0.3981 
 s8 scaling factor         :     1.9889 
 a2 scaling factor         :     4.4211 
 ad hoc parameters k1-k3   :    16.0000     1.3333    -4.0000 

 Edisp/kcal,au: -9.082914242923  -0.014474543651 
 E6   /kcal   :  -4.501974808 
 E8   /kcal   :  -4.580939435 
 % E8         :  50.434687729 

-------------------------   ----------------
Dispersion correction           -0.014474544
-------------------------   ----------------


-------------------------   --------------------
FINAL SINGLE POINT ENERGY      -157.529104178928
-------------------------   --------------------

------------------------------------------------------------------------------
                         ORCA SCF GRADIENT CALCULATION
------------------------------------------------------------------------------

Gradient of the Kohn-Sham DFT energy:
Kohn-Sham wavefunction type      ... UKS
Hartree-Fock exchange scaling    ...    0.200
Number of operators              ...    2
Number of atoms                  ...   13
Basis set dimensions             ...   74
Integral neglect threshold       ... 1.0e-12
Integral primitive cutoff        ... 1.0e-14

Nuclear repulsion gradient       ... done
One Electron Gradient            ... done
Pre-screening matrix             ... done
Starting the two electron gradient:
Two electron gradient done
Exchange-correlation gradient    ... done
Dispersion correction            ... done

------------------
CARTESIAN GRADIENT
------------------

   1   C   :   -0.004613548    0.011557855   -0.064561951
   2   C   :    0.009443150   -0.012820924    0.030305121
   3   C   :   -0.015178881   -0.011211150    0.020393893
   4   C   :    0.012081110    0.001309363    0.027476032
   5   H   :    0.002114815    0.008952489    0.000214099
   6   H   :   -0.008234299    0.009389014    0.002493486
   7   H   :   -0.013200510    0.008576537   -0.004083562
   8   H   :    0.002749674   -0.009274509    0.004261378
   9   H   :    0.007459732   -0.007543927   -0.008371234
  10   H   :    0.002885560    0.001175714    0.002126954
  11   H   :    0.000557188    0.000870868   -0.005230764
  12   H   :    0.001429093   -0.007609290   -0.002150061
  13   H   :    0.002506917    0.006627959   -0.002873392

Difference to translation invariance:
           :    0.0000000000    0.0000000000   -0.0000000000

Norm of the cartesian gradient     ...    0.0902278295
RMS gradient                       ...    0.0144480158
MAX gradient                       ...    0.0645619507

-------
TIMINGS
-------

Total SCF gradient time            ...        4.590 sec

One electron gradient       ....       0.028 sec  (  0.6%)
Prescreening matrices       ....       0.028 sec  (  0.6%)
Two electron gradient       ....       1.413 sec  ( 30.8%)
XC gradient                 ....       2.738 sec  ( 59.7%)
------------------------------------------------------------------------------
                         ORCA GEOMETRY RELAXATION STEP
------------------------------------------------------------------------------

Reading the OPT-File                    .... done
Getting information on internals        .... done
Copying old internal coords+grads       .... done
Making the new internal coordinates     .... (new redundants).... done
Validating the new internal coordinates .... (new redundants).... done
Calculating the B-matrix                .... done
Calculating the G,G- and P matrices     .... done
Transforming gradient to internals      .... done
Projecting the internal gradient        .... done
Number of atoms                         ....  13
Number of internal coordinates          ....  51
Current Energy                          ....  -157.529104179 Eh
Current gradient norm                   ....     0.090227830 Eh/bohr
Maximum allowed component of the step   ....  0.300
Current trust radius                    ....  0.300
Evaluating the initial hessian          ....  (Almloef) done
Projecting the Hessian                  .... done
Forming the augmented Hessian           .... done
Diagonalizing the augmented Hessian     .... done
Last element of RFO vector              ....  0.880298901
Lowest eigenvalues of augmented Hessian:
 -0.026264408  0.010856221  0.012124718  0.012439650  0.062490013
Length of the computed step             ....  0.538929996
Warning: the length of the step is outside the trust region - taking restricted step instead
The input lambda is                     ....    -0.026264
   iter:   1  x=   -0.051248  g=    8.023156 f(x)=     0.200446
   iter:   2  x=   -0.074710  g=    3.151900 f(x)=     0.073949
   iter:   3  x=   -0.086935  g=    1.651856 f(x)=     0.020195
   iter:   4  x=   -0.089061  g=    1.245215 f(x)=     0.002647
   iter:   5  x=   -0.089112  g=    1.189030 f(x)=     0.000060
   iter:   6  x=   -0.089112  g=    1.187732 f(x)=     0.000000
   iter:   7  x=   -0.089112  g=    1.187731 f(x)=     0.000000
The output lambda is                    ....    -0.089112 (7 iterations)
The final length of the internal step   ....  0.300000000
Converting the step to cartesian space:
 Initial RMS(Int)=    0.0420084025
Transforming coordinates:
 Iter   0:  RMS(Cart)=    0.0736409340 RMS(Int)=    0.0428209531
 Iter   1:  RMS(Cart)=    0.0031856785 RMS(Int)=    0.0017246714
 Iter   2:  RMS(Cart)=    0.0001217591 RMS(Int)=    0.0000627881
 Iter   3:  RMS(Cart)=    0.0000075981 RMS(Int)=    0.0000056910
 Iter   4:  RMS(Cart)=    0.0000004541 RMS(Int)=    0.0000002608
 Iter   5:  RMS(Cart)=    0.0000000259 RMS(Int)=    0.0000000214
done
Storing new coordinates                 .... done

                                .--------------------.
          ----------------------|Geometry convergence|-------------------------
          Item                value                   Tolerance       Converged
          ---------------------------------------------------------------------
          RMS gradient        0.0086890330            0.0001000000      NO
          MAX gradient        0.0195254561            0.0003000000      NO
          RMS step            0.0420084025            0.0020000000      NO
          MAX step            0.0887397110            0.0040000000      NO
          ........................................................
          Max(Bonds)      0.0134      Max(Angles)    4.84
          Max(Dihed)        5.08      Max(Improp)    0.00
          ---------------------------------------------------------------------

The optimization has not yet converged - more geometry cycles are needed


    ---------------------------------------------------------------------------
                         Redundant Internal Coordinates
                            (Angstroem and degrees)

        Definition                    Value    dE/dq     Step     New-Value
    ----------------------------------------------------------------------------
     1. B(C   1,C   0)                1.5258 -0.009214  0.0104    1.5362   
     2. B(C   2,C   0)                1.5115 -0.012395  0.0134    1.5250   
     3. B(C   3,C   0)                1.5055 -0.012553  0.0133    1.5189   
     4. B(H   4,C   1)                1.1058 -0.000167  0.0002    1.1060   
     5. B(H   5,C   1)                1.1004 -0.003962  0.0048    1.1053   
     6. B(H   6,C   1)                1.0994 -0.002634  0.0032    1.1026   
     7. B(H   7,C   2)                1.0934 -0.006977  0.0083    1.1017   
     8. B(H   8,C   2)                1.1195  0.005887 -0.0076    1.1120   
     9. B(H   9,C   2)                1.1142  0.002683 -0.0034    1.1108   
    10. B(H  10,C   3)                1.1198  0.004141 -0.0053    1.1145   
    11. B(H  11,C   3)                1.1153  0.005855 -0.0074    1.1079   
    12. B(H  12,C   3)                1.1061  0.001580 -0.0020    1.1041   
    13. A(C   1,C   0,C   3)          111.94  0.001511    1.35    113.29   
    14. A(C   2,C   0,C   3)          112.81 -0.000683    1.71    114.52   
    15. A(C   1,C   0,C   2)          105.12 -0.018902    4.84    109.96   
    16. A(H   4,C   1,H   5)          106.58  0.003055   -0.11    106.47   
    17. A(H   5,C   1,H   6)          114.12  0.015559   -2.29    111.83   
    18. A(H   4,C   1,H   6)          114.36  0.013397   -2.21    112.15   
    19. A(C   0,C   1,H   4)          108.40 -0.001317    0.25    108.65   
    20. A(C   0,C   1,H   5)          106.72 -0.013890    2.10    108.82   
    21. A(C   0,C   1,H   6)          106.30 -0.019525    2.67    108.97   
    22. A(H   7,C   2,H   9)          106.72 -0.001521    0.16    106.88   
    23. A(C   0,C   2,H   9)          111.53  0.003864   -0.44    111.09   
    24. A(H   7,C   2,H   8)          112.99  0.011474   -1.90    111.09   
    25. A(C   0,C   2,H   8)          105.72 -0.016322    2.35    108.07   
    26. A(H   8,C   2,H   9)          105.51  0.002440   -0.02    105.49   
    27. A(C   0,C   2,H   7)          114.11  0.000639   -0.19    113.92   
    28. A(H  11,C   3,H  12)          113.05  0.007165   -1.42    111.63   
    29. A(H  10,C   3,H  12)          105.88  0.002832   -0.11    105.78   
    30. A(C   0,C   3,H  12)          109.95 -0.007365    0.98    110.93   
    31. A(H  10,C   3,H  11)          105.05  0.000595    0.05    105.10   
    32. A(C   0,C   3,H  11)          112.81  0.002191   -0.41    112.40   
    33. A(C   0,C   3,H  10)          109.72 -0.005361    0.95    110.67   
    34. D(H   6,C   1,C   0,C   2)    173.37 -0.006192    3.43    176.80   
    35. D(H   4,C   1,C   0,C   2)     49.99 -0.009949    4.36     54.34   
    36. D(H   6,C   1,C   0,C   3)     50.56  0.006121   -2.61     47.95   
    37. D(H   5,C   1,C   0,C   2)    -64.47 -0.005882    3.31    -61.16   
    38. D(H   4,C   1,C   0,C   3)    -72.83  0.002363   -1.68    -74.51   
    39. D(H   5,C   1,C   0,C   3)    172.72  0.006430   -2.73    169.99   
    40. D(H   7,C   2,C   0,C   1)   -157.66  0.007730   -4.05   -161.71   
    41. D(H   9,C   2,C   0,C   3)     85.61 -0.002031    1.58     87.19   
    42. D(H   9,C   2,C   0,C   1)    -36.64  0.009129   -4.31    -40.95   
    43. D(H   8,C   2,C   0,C   3)   -160.20 -0.006399    2.65   -157.55   
    44. D(H   8,C   2,C   0,C   1)     77.55  0.004761   -3.24     74.31   
    45. D(H   7,C   2,C   0,C   3)    -35.41 -0.003430    1.84    -33.57   
    46. D(H  11,C   3,C   0,C   1)      5.68 -0.014628    5.08     10.76   
    47. D(H  10,C   3,C   0,C   2)    130.60  0.010443   -3.66    126.94   
    48. D(H  10,C   3,C   0,C   1)   -111.07 -0.013220    4.65   -106.42   
    49. D(H  12,C   3,C   0,C   2)     14.54  0.014369   -4.65      9.89   
    50. D(H  12,C   3,C   0,C   1)    132.87 -0.009295    3.66    136.53   
    51. D(H  11,C   3,C   0,C   2)   -112.65  0.009035   -3.23   -115.88   
    ----------------------------------------------------------------------------

Time needed for optimization step       :     1.20 sec

         *************************************************************
         *                GEOMETRY OPTIMIZATION CYCLE   2            *
         *************************************************************
---------------------------------
CARTESIAN COORDINATES (ANGSTROEM)
---------------------------------
  C     -0.003341    0.077070   -0.343048
  C      1.117910   -0.932240   -0.053128
  C      0.254045    1.370235    0.423097
  C     -1.392400   -0.503141   -0.140834
  H      1.201909   -1.062217    1.041998
  H      2.078757   -0.503938   -0.392111
  H      0.888235   -1.879985   -0.567719
  H     -0.635033    2.012584    0.526859
  H      1.082382    1.912197   -0.083492
  H      0.621590    1.159924    1.450051
  H     -1.888048   -0.688122   -1.121764
  H     -1.368532   -1.490461    0.361268
  H     -2.043504    0.210050    0.394390

----------------------------
CARTESIAN COORDINATES (A.U.)
----------------------------
  NO LB      ZA    FRAG     MASS         X           Y           Z
   0 C     6.0000    0    12.011   -0.006314    0.145642   -0.648266
   1 C     6.0000    0    12.011    2.112543   -1.761678   -0.100397
   2 C     6.0000    0    12.011    0.480075    2.589369    0.799537
   3 C     6.0000    0    12.011   -2.631255   -0.950798   -0.266138
   4 H     1.0000    0     1.008    2.271279   -2.007298    1.969090
   5 H     1.0000    0     1.008    3.928281   -0.952304   -0.740982
   6 H     1.0000    0     1.008    1.678521   -3.552658   -1.072833
   7 H     1.0000    0     1.008   -1.200039    3.803232    0.995620
   8 H     1.0000    0     1.008    2.045406    3.613528   -0.157778
   9 H     1.0000    0     1.008    1.174634    2.191938    2.740199
  10 H     1.0000    0     1.008   -3.567894   -1.300361   -2.119826
  11 H     1.0000    0     1.008   -2.586151   -2.816564    0.682698
  12 H     1.0000    0     1.008   -3.861663    0.396936    0.745289

--------------------------------
INTERNAL COORDINATES (ANGSTROEM)
--------------------------------
 C      0   0   0     0.000000000000     0.00000000     0.00000000
 C      1   0   0     1.536217749329     0.00000000     0.00000000
 C      1   2   0     1.524958942718   109.82439288     0.00000000
 C      1   2   3     1.518887632326   113.04096920   231.05602480
 H      2   1   3     1.106006088793   108.63333753    54.39505527
 H      2   1   3     1.105250694130   108.78596733   298.90351876
 H      2   1   3     1.102622395957   108.94229012   176.82445978
 H      3   1   2     1.101743462525   113.92385463   198.23142028
 H      3   1   2     1.111979384503   108.06824952    74.25468832
 H      3   1   2     1.110835490394   111.08559147   318.99230675
 H      4   1   2     1.114498892577   110.66719568   253.57089299
 H      4   1   2     1.107916321585   112.39879124    10.74293620
 H      4   1   2     1.104102080034   110.92188073   136.50634664

---------------------------
INTERNAL COORDINATES (A.U.)
---------------------------
 C      0   0   0     0.000000000000     0.00000000     0.00000000
 C      1   0   0     2.903030828301     0.00000000     0.00000000
 C      1   2   0     2.881754767211   109.82439288     0.00000000
 C      1   2   3     2.870281653296   113.04096920   231.05602480
 H      2   1   3     2.090048610269   108.63333753    54.39505527
 H      2   1   3     2.088621121232   108.78596733   298.90351876
 H      2   1   3     2.083654357487   108.94229012   176.82445978
 H      3   1   2     2.081993414010   113.92385463   198.23142028
 H      3   1   2     2.101336503276   108.06824952    74.25468832
 H      3   1   2     2.099174856684   111.08559147   318.99230675
 H      4   1   2     2.106097683529   110.66719568   253.57089299
 H      4   1   2     2.093658427098   112.39879124    10.74293620
 H      4   1   2     2.086450555157   110.92188073   136.50634664


Diagonalization of the overlap matrix:
Smallest eigenvalue                        ... 2.530e-03
Time for diagonalization                   ...    0.002 sec
Threshold for overlap eigenvalues          ... 1.000e-08
Number of eigenvalues below threshold      ... 0
Time for construction of square roots      ...    0.276 sec
Total time needed                          ...    0.278 sec

-------------------
DFT GRID GENERATION
-------------------

General Integration Accuracy     IntAcc      ...  4.340
Radial Grid Type                 RadialGrid  ... Gauss-Chebyshev
Angular Grid (max. acc.)         AngularGrid ... Lebedev-110
Angular grid pruning method      GridPruning ... 3 (G Style)
Weight generation scheme         WeightScheme... Becke
Basis function cutoff            BFCut       ...    1.0000e-12
Integration weight cutoff        WCut        ...    1.0000e-14
Grids for H and He will be reduced by one unit

# of grid points (after initial pruning)     ...  13770 (   0.0 sec)
# of grid points (after weights+screening)   ...  12912 (   0.0 sec)
nearest neighbour list constructed           ...    0.0 sec
Grid point re-assignment to atoms done       ...    0.0 sec
Grid point division into batches done        ...    0.0 sec
Reduced shell lists constructed in    0.2 sec

Total number of grid points                  ...    12912
Total number of batches                      ...      209
Average number of points per batch           ...       61
Average number of grid points per atom       ...      993
Average number of shells per batch           ...    37.04 (88.20%)
Average number of basis functions per batch  ...    65.97 (89.14%)
Average number of large shells per batch     ...    32.13 (86.73%)
Average number of large basis fcns per batch ...    56.93 (86.30%)
Maximum spatial batch extension              ...  20.12, 22.44, 25.46 au
Average spatial batch extension              ...   4.05,  4.10,  4.16 au

Time for grid setup =    0.721 sec

--------------
SCF ITERATIONS
--------------
ITER       Energy         Delta-E        Max-DP      RMS-DP      [F,P]     Damp
               ***  Starting incremental Fock matrix formation  ***
  0   -157.5241550567   0.000000000000 0.00248604  0.00015921  0.0162970 0.7000
  1   -157.5248475656  -0.000692508927 0.00194303  0.00014885  0.0129137 0.7000
                               ***Turning on DIIS***
  2   -157.5253912617  -0.000543696096 0.00499835  0.00039768  0.0097039 0.0000
  3   -157.5267725089  -0.001381247238 0.00301943  0.00008178  0.0014371 0.0000
  4   -157.5267937214  -0.000021212463 0.00233467  0.00006828  0.0006838 0.0000
  5   -157.5267977510  -0.000004029656 0.00039576  0.00001367  0.0003016 0.0000
  6   -157.5267981765  -0.000000425459 0.00023790  0.00000634  0.0001243 0.0000
  7   -157.5267982563  -0.000000079749 0.00002579  0.00000127  0.0000174 0.0000
  8   -157.5267982608  -0.000000004519 0.00001028  0.00000046  0.0000078 0.0000
  9   -157.5267982614  -0.000000000608 0.00000596  0.00000019  0.0000032 0.0000
 10   -157.5267982615  -0.000000000094 0.00000125  0.00000006  0.0000008 0.0000
 11   -157.5267982615  -0.000000000015 0.00000037  0.00000002  0.0000002 0.0000
                 **** Energy Check signals convergence ****

 Fermi smearing  (ALPHA): E(HOMO(Eh)) = -0.326725 MUE = -0.068734 gap=   6.878 eV
 Fermi smearing   (BETA): E(HOMO(Eh)) = -0.321135 MUE = -0.182063 gap=   7.511 eV

N_FOD(alpha) =  0.000000
 N_FOD(beta) =  0.000000
       N_FOD =  0.000000

               *****************************************************
               *                     SUCCESS                       *
               *           SCF CONVERGED AFTER  12 CYCLES          *
               *****************************************************

Setting up the final grid:

General Integration Accuracy     IntAcc      ...  4.670
Radial Grid Type                 RadialGrid  ... Gauss-Chebyshev
Angular Grid (max. acc.)         AngularGrid ... Lebedev-302
Angular grid pruning method      GridPruning ... 3 (G Style)
Weight generation scheme         WeightScheme... Becke
Basis function cutoff            BFCut       ...    1.0000e-12
Integration weight cutoff        WCut        ...    1.0000e-14
Grids for H and He will be reduced by one unit

# of grid points (after initial pruning)     ...  55394 (   0.0 sec)
# of grid points (after weights+screening)   ...  51297 (   0.1 sec)
nearest neighbour list constructed           ...    0.0 sec
Grid point re-assignment to atoms done       ...    0.0 sec
Grid point division into batches done        ...    0.2 sec
Reduced shell lists constructed in    0.3 sec

Total number of grid points                  ...    51297
Total number of batches                      ...      806
Average number of points per batch           ...       63
Average number of grid points per atom       ...     3946
Average number of shells per batch           ...    34.79 (82.83%)
Average number of basis functions per batch  ...    61.83 (83.55%)
Average number of large shells per batch     ...    29.47 (84.71%)
Average number of large basis fcns per batch ...    51.75 (83.70%)
Maximum spatial batch extension              ...  20.47, 18.32, 19.01 au
Average spatial batch extension              ...   2.65,  2.63,  2.60 au

Final grid set up in    0.9 sec
Final integration                            ... done (   4.5 sec)
Change in XC energy                          ...    -0.000223183
Integrated number of electrons               ...    33.000058894
Previous integrated no of electrons          ...    32.996156466
Total Energy       :         -157.52702144 Eh           -4286.52818 eV
  Last Energy change         ...   -2.3874e-12  Tolerance :   1.0000e-09
  Last MAX-Density change    ...    1.6755e-07  Tolerance :   1.0000e-08
             **** THE GBW FILE WAS UPDATED (orca2.gbw) ****
             **** DENSITY FILE WAS UPDATED (orca2.scfp) ****
             **** ENERGY FILE WAS UPDATED (orca2.en.tmp) ****
             **** THE GBW FILE WAS UPDATED (orca2.gbw) ****
             **** DENSITY FILE WAS UPDATED (orca2.scfp) ****
Total SCF time: 0 days 0 hours 1 min 27 sec 


-------------------------------------------------------------------------------
                          DFT DISPERSION CORRECTION                            
                                                                               
                              DFTD3 V3.1  Rev 1                                
                          USING Becke-Johnson damping                          
-------------------------------------------------------------------------------
-------------------------   ----------------
Dispersion correction           -0.014190139
-------------------------   ----------------


-------------------------   --------------------
FINAL SINGLE POINT ENERGY      -157.541211584082
-------------------------   --------------------

------------------------------------------------------------------------------
                         ORCA SCF GRADIENT CALCULATION
------------------------------------------------------------------------------

Gradient of the Kohn-Sham DFT energy:
Kohn-Sham wavefunction type      ... UKS
Hartree-Fock exchange scaling    ...    0.200
Number of operators              ...    2
Number of atoms                  ...   13
Basis set dimensions             ...   74
Integral neglect threshold       ... 1.0e-12
Integral primitive cutoff        ... 1.0e-14

Nuclear repulsion gradient       ... done
One Electron Gradient            ... done
Pre-screening matrix             ... done
Starting the two electron gradient:
Two electron gradient done
Exchange-correlation gradient    ... done
Dispersion correction            ... done

------------------
CARTESIAN GRADIENT
------------------

   1   C   :   -0.002093657    0.010449338   -0.050084842
   2   C   :    0.010147397   -0.019013304    0.022295207
   3   C   :   -0.008029332    0.000680007    0.017826021
   4   C   :    0.001528699   -0.003450998    0.021393063
   5   H   :    0.001680198    0.005944803   -0.001531079
   6   H   :   -0.003062442    0.006125105    0.001691363
   7   H   :   -0.007354743    0.003768233   -0.002923893
   8   H   :   -0.000118417   -0.002992043    0.004128233
   9   H   :    0.003826023   -0.005114348   -0.003709923
  10   H   :    0.001369708    0.002293761   -0.000733627
  11   H   :   -0.000034560    0.000584872   -0.001891894
  12   H   :    0.000670901   -0.002792590   -0.003559456
  13   H   :    0.001470225    0.003517164   -0.002899172

Difference to translation invariance:
           :   -0.0000000000   -0.0000000000    0.0000000000

Norm of the cartesian gradient     ...    0.0688574627
RMS gradient                       ...    0.0110260184
MAX gradient                       ...    0.0500848418

-------
TIMINGS
-------

Total SCF gradient time            ...        4.164 sec

One electron gradient       ....       0.030 sec  (  0.7%)
Prescreening matrices       ....       0.027 sec  (  0.6%)
Two electron gradient       ....       1.405 sec  ( 33.7%)
XC gradient                 ....       2.542 sec  ( 61.0%)
------------------------------------------------------------------------------
                         ORCA GEOMETRY RELAXATION STEP
------------------------------------------------------------------------------

Reading the OPT-File                    .... done
Getting information on internals        .... done
Copying old internal coords+grads       .... done
Making the new internal coordinates     .... (new redundants).... done
Validating the new internal coordinates .... (new redundants).... done
Calculating the B-matrix                .... done
Calculating the G,G- and P matrices     .... done
Transforming gradient to internals      .... done
Projecting the internal gradient        .... done
Number of atoms                         ....  13
Number of internal coordinates          ....  51
Current Energy                          ....  -157.541211584 Eh
Current gradient norm                   ....     0.068857463 Eh/bohr
Maximum allowed component of the step   ....  0.300
Current trust radius                    ....  0.300
Updating the Hessian (BFGS)             .... done
Forming the augmented Hessian           .... done
Diagonalizing the augmented Hessian     .... done
Last element of RFO vector              ....  0.928476602
Lowest eigenvalues of augmented Hessian:
 -0.011469885  0.010797811  0.012042050  0.012447702  0.060570941
Length of the computed step             ....  0.400000276
Warning: the length of the step is outside the trust region - taking restricted step instead
The input lambda is                     ....    -0.011470
   iter:   1  x=   -0.024730  g=    5.279015 f(x)=     0.070000
   iter:   2  x=   -0.031671  g=    2.778454 f(x)=     0.019286
   iter:   3  x=   -0.032818  g=    2.120475 f(x)=     0.002431
   iter:   4  x=   -0.032842  g=    2.033675 f(x)=     0.000050
   iter:   5  x=   -0.032842  g=    2.031860 f(x)=     0.000000
   iter:   6  x=   -0.032842  g=    2.031860 f(x)=     0.000000
The output lambda is                    ....    -0.032842 (6 iterations)
The final length of the internal step   ....  0.300000000
Converting the step to cartesian space:
 Initial RMS(Int)=    0.0420084025
Transforming coordinates:
 Iter   0:  RMS(Cart)=    0.0480284027 RMS(Int)=    0.8724635667
 Iter   1:  RMS(Cart)=    0.0028319676 RMS(Int)=    0.0018090509
 Iter   2:  RMS(Cart)=    0.0001325687 RMS(Int)=    0.0000703851
 Iter   3:  RMS(Cart)=    0.0000041270 RMS(Int)=    0.0000035905
 Iter   4:  RMS(Cart)=    0.0000002330 RMS(Int)=    0.0000001722
 Iter   5:  RMS(Cart)=    0.0000000118 RMS(Int)=    0.0000000099
done
Storing new coordinates                 .... done

                                .--------------------.
          ----------------------|Geometry convergence|-------------------------
          Item                value                   Tolerance       Converged
          ---------------------------------------------------------------------
          Energy change      -0.0121074052            0.0000050000      NO
          RMS gradient        0.0046192288            0.0001000000      NO
          MAX gradient        0.0098699671            0.0003000000      NO
          RMS step            0.0420084025            0.0020000000      NO
          MAX step            0.0942116890            0.0040000000      NO
          ........................................................
          Max(Bonds)      0.0152      Max(Angles)    3.49
          Max(Dihed)        5.40      Max(Improp)    0.00
          ---------------------------------------------------------------------

The optimization has not yet converged - more geometry cycles are needed


    ---------------------------------------------------------------------------
                         Redundant Internal Coordinates
                            (Angstroem and degrees)

        Definition                    Value    dE/dq     Step     New-Value
    ----------------------------------------------------------------------------
     1. B(C   1,C   0)                1.5362  0.006796 -0.0152    1.5210   
     2. B(C   2,C   0)                1.5250  0.003953 -0.0086    1.5164   
     3. B(C   3,C   0)                1.5189 -0.000771  0.0012    1.5201   
     4. B(H   4,C   1)                1.1060 -0.002092  0.0050    1.1110   
     5. B(H   5,C   1)                1.1053 -0.000807  0.0017    1.1069   
     6. B(H   6,C   1)                1.1026 -0.000340  0.0006    1.1033   
     7. B(H   7,C   2)                1.1017 -0.001262  0.0025    1.1043   
     8. B(H   8,C   2)                1.1120  0.002045 -0.0047    1.1073   
     9. B(H   9,C   2)                1.1108 -0.000654  0.0018    1.1127   
    10. B(H  10,C   3)                1.1145  0.001584 -0.0037    1.1108   
    11. B(H  11,C   3)                1.1079  0.000888 -0.0018    1.1062   
    12. B(H  12,C   3)                1.1041  0.000001  0.0001    1.1042   
    13. A(C   1,C   0,C   3)          113.04 -0.000682    1.78    114.82   
    14. A(C   2,C   0,C   3)          114.29 -0.001915    2.14    116.44   
    15. A(C   1,C   0,C   2)          109.82 -0.006617    3.49    113.31   
    16. A(H   4,C   1,H   5)          106.45  0.001074    0.24    106.69   
    17. A(H   5,C   1,H   6)          111.78  0.008849   -2.36    109.42   
    18. A(H   4,C   1,H   6)          112.14  0.007800   -2.49    109.66   
    19. A(C   0,C   1,H   4)          108.63 -0.000626    0.24    108.87   
    20. A(C   0,C   1,H   5)          108.79 -0.007579    2.21    111.00   
    21. A(C   0,C   1,H   6)          108.94 -0.009870    2.45    111.39   
    22. A(H   7,C   2,H   9)          106.88 -0.002282    0.53    107.41   
    23. A(C   0,C   2,H   9)          111.09  0.003502   -0.82    110.26   
    24. A(H   7,C   2,H   8)          111.09  0.006192   -1.96    109.13   
    25. A(C   0,C   2,H   8)          108.07 -0.009833    2.64    110.71   
    26. A(H   8,C   2,H   9)          105.48  0.000476    0.36    105.84   
    27. A(C   0,C   2,H   7)          113.92  0.002139   -0.74    113.18   
    28. A(H  11,C   3,H  12)          111.63  0.004594   -1.84    109.79   
    29. A(H  10,C   3,H  12)          105.76  0.000659    0.29    106.05   
    30. A(C   0,C   3,H  12)          110.92 -0.003826    0.88    111.81   
    31. A(H  10,C   3,H  11)          105.10 -0.000634    0.45    105.55   
    32. A(C   0,C   3,H  11)          112.40  0.001526   -0.57    111.83   
    33. A(C   0,C   3,H  10)          110.67 -0.002260    0.88    111.55   
    34. D(H   6,C   1,C   0,C   2)    176.82 -0.003990    3.30    180.13   
    35. D(H   4,C   1,C   0,C   2)     54.40 -0.007056    4.69     59.08   
    36. D(H   6,C   1,C   0,C   3)     47.88  0.004700   -3.13     44.75   
    37. D(H   5,C   1,C   0,C   2)    -61.10 -0.003931    3.15    -57.95   
    38. D(H   4,C   1,C   0,C   3)    -74.55  0.001634   -1.75    -76.30   
    39. D(H   5,C   1,C   0,C   3)    169.96  0.004759   -3.28    166.68   
    40. D(H   7,C   2,C   0,C   1)   -161.77  0.005533   -4.56   -166.33   
    41. D(H   9,C   2,C   0,C   3)     87.25 -0.001487    1.27     88.52   
    42. D(H   9,C   2,C   0,C   1)    -41.01  0.006691   -5.03    -46.04   
    43. D(H   8,C   2,C   0,C   3)   -157.49 -0.004720    2.77   -154.71   
    44. D(H   8,C   2,C   0,C   1)     74.25  0.003457   -3.53     70.73   
    45. D(H   7,C   2,C   0,C   3)    -33.51 -0.002645    1.74    -31.77   
    46. D(H  11,C   3,C   0,C   1)     10.74 -0.008096    5.40     16.14   
    47. D(H  10,C   3,C   0,C   2)    126.96  0.004716   -2.94    124.02   
    48. D(H  10,C   3,C   0,C   1)   -106.43 -0.006786    4.61   -101.81   
    49. D(H  12,C   3,C   0,C   2)      9.90  0.007674   -4.35      5.55   
    50. D(H  12,C   3,C   0,C   1)    136.51 -0.003827    3.21    139.71   
    51. D(H  11,C   3,C   0,C   2)   -115.86  0.003405   -2.16   -118.02   
    ----------------------------------------------------------------------------

Time needed for optimization step       :     1.04 sec

         *************************************************************
         *                GEOMETRY OPTIMIZATION CYCLE   3            *
         *************************************************************
---------------------------------
CARTESIAN COORDINATES (ANGSTROEM)
---------------------------------
  C      0.003082    0.071872   -0.278996
  C      1.118827   -0.939682   -0.065893
  C      0.257126    1.390153    0.425950
  C     -1.397423   -0.501230   -0.134571
  H      1.224980   -1.132783    1.023070
  H      2.089619   -0.536279   -0.412435
  H      0.908261   -1.886409   -0.591783
  H     -0.637699    2.035190    0.477234
  H      1.077949    1.946166   -0.067195
  H      0.597121    1.209408    1.469855
  H     -1.866755   -0.685141   -1.124446
  H     -1.389810   -1.482035    0.376834
[...]

             **** THE GBW FILE WAS UPDATED (orca2.gbw) ****
             **** DENSITY FILE WAS UPDATED (orca2.scfp) ****
             **** ENERGY FILE WAS UPDATED (orca2.en.tmp) ****
             **** THE GBW FILE WAS UPDATED (orca2.gbw) ****
             **** DENSITY FILE WAS UPDATED (orca2.scfp) ****
----------------
ORBITAL ENERGIES
----------------
                 SPIN UP ORBITALS
  NO   OCC          E(Eh)            E(eV) 
   0   1.0000     -10.183314      -277.1021 
   1   1.0000     -10.169535      -276.7271 
   2   1.0000     -10.169309      -276.7210 
   3   1.0000     -10.169110      -276.7156 
   4   1.0000      -0.789278       -21.4773 
   5   1.0000      -0.677262       -18.4292 
   6   1.0000      -0.677127       -18.4256 
   7   1.0000      -0.526176       -14.3180 
   8   1.0000      -0.439794       -11.9674 
   9   1.0000      -0.435298       -11.8451 
  10   1.0000      -0.435243       -11.8436 
  11   1.0000      -0.381384       -10.3780 
  12   1.0000      -0.381248       -10.3743 
  13   1.0000      -0.362941        -9.8761 
  14   1.0000      -0.342278        -9.3139 
  15   1.0000      -0.342114        -9.3094 
  16   1.0000      -0.170679        -4.6444 
  17   0.0000       0.054468         1.4821 
  18   0.0000       0.105118         2.8604 
  19   0.0000       0.105538         2.8718 
  20   0.0000       0.121025         3.2932 
  21   0.0000       0.121311         3.3010 
  22   0.0000       0.132477         3.6049 
  23   0.0000       0.156414         4.2562 
  24   0.0000       0.156747         4.2653 
  25   0.0000       0.191240         5.2039 
  26   0.0000       0.205998         5.6055 
  27   0.0000       0.277073         7.5396 
  28   0.0000       0.279332         7.6010 
  29   0.0000       0.401318        10.9204 
  30   0.0000       0.401919        10.9368 
  31   0.0000       0.438327        11.9275 
  32   0.0000       0.472687        12.8625 
  33   0.0000       0.473287        12.8788 
  34   0.0000       0.476083        12.9549 
  35   0.0000       0.612522        16.6676 
  36   0.0000       0.621002        16.8983 
  37   0.0000       0.621975        16.9248 
  38   0.0000       0.638916        17.3858 
  39   0.0000       0.647506        17.6195 
  40   0.0000       0.663592        18.0573 
  41   0.0000       0.682096        18.5608 
  42   0.0000       0.682322        18.5669 
  43   0.0000       0.704815        19.1790 
  44   0.0000       0.705268        19.1913 
  45   0.0000       0.705832        19.2067 
  46   0.0000       0.731386        19.9020 
  47   0.0000       0.732332        19.9278 
  48   0.0000       0.762925        20.7602 
  49   0.0000       0.787689        21.4341 
  50   0.0000       0.788205        21.4481 
  51   0.0000       0.842512        22.9259 
  52   0.0000       1.013740        27.5853 
  53   0.0000       1.014068        27.5942 
  54   0.0000       1.429845        38.9081 
  55   0.0000       1.430346        38.9217 
  56   0.0000       1.724116        46.9156 
  57   0.0000       1.772674        48.2369 
  58   0.0000       1.772836        48.2413 
  59   0.0000       1.776793        48.3490 
  60   0.0000       1.979649        53.8690 
  61   0.0000       1.979929        53.8766 
  62   0.0000       1.980660        53.8965 
  63   0.0000       2.041543        55.5532 
  64   0.0000       2.042169        55.5702 
  65   0.0000       2.132649        58.0323 
  66   0.0000       2.155389        58.6511 
  67   0.0000       2.175748        59.2051 
  68   0.0000       2.176030        59.2128 
  69   0.0000       2.417261        65.7770 
  70   0.0000       2.417500        65.7835 
  71   0.0000       2.482939        67.5642 
  72   0.0000       2.732420        74.3529 
  73   0.0000       2.733085        74.3710 

                 SPIN DOWN ORBITALS
  NO   OCC          E(Eh)            E(eV) 
   0   1.0000     -10.170529      -276.7542 
   1   1.0000     -10.170304      -276.7480 
   2   1.0000     -10.170107      -276.7427 
   3   1.0000     -10.169025      -276.7132 
   4   1.0000      -0.772306       -21.0155 
   5   1.0000      -0.674890       -18.3647 
   6   1.0000      -0.674765       -18.3613 
   7   1.0000      -0.508155       -13.8276 
   8   1.0000      -0.431287       -11.7359 
   9   1.0000      -0.431218       -11.7340 
  10   1.0000      -0.419929       -11.4268 
  11   1.0000      -0.375399       -10.2151 
  12   1.0000      -0.375263       -10.2114 
  13   1.0000      -0.361833        -9.8460 
  14   1.0000      -0.337452        -9.1825 
  15   1.0000      -0.337297        -9.1783 
  16   0.0000      -0.030379        -0.8267 
  17   0.0000       0.055663         1.5147 
  18   0.0000       0.106147         2.8884 
  19   0.0000       0.106560         2.8996 
  20   0.0000       0.122512         3.3337 
  21   0.0000       0.122791         3.3413 
  22   0.0000       0.141141         3.8406 
  23   0.0000       0.159487         4.3399 
  24   0.0000       0.159814         4.3488 
  25   0.0000       0.191372         5.2075 
  26   0.0000       0.224022         6.0959 
  27   0.0000       0.283267         7.7081 
  28   0.0000       0.285568         7.7707 
  29   0.0000       0.403290        10.9741 
  30   0.0000       0.403900        10.9907 
  31   0.0000       0.459982        12.5168 
  32   0.0000       0.479497        13.0478 
  33   0.0000       0.480095        13.0641 
  34   0.0000       0.493012        13.4155 
  35   0.0000       0.622420        16.9369 
  36   0.0000       0.623412        16.9639 
  37   0.0000       0.648463        17.6456 
  38   0.0000       0.649215        17.6660 
  39   0.0000       0.657294        17.8859 
  40   0.0000       0.672956        18.3121 
  41   0.0000       0.686994        18.6941 
  42   0.0000       0.687258        18.7012 
  43   0.0000       0.707066        19.2402 
  44   0.0000       0.707598        19.2547 
  45   0.0000       0.715202        19.4616 
  46   0.0000       0.734762        19.9939 
  47   0.0000       0.735703        20.0195 
  48   0.0000       0.762642        20.7525 
  49   0.0000       0.791891        21.5485 
  50   0.0000       0.792442        21.5634 
  51   0.0000       0.851785        23.1783 
  52   0.0000       1.016782        27.6680 
  53   0.0000       1.017121        27.6773 
  54   0.0000       1.452052        39.5123 
  55   0.0000       1.452573        39.5265 
  56   0.0000       1.721760        46.8515 
  57   0.0000       1.776227        48.3336 
  58   0.0000       1.776378        48.3377 
  59   0.0000       1.805799        49.1383 
  60   0.0000       1.983845        53.9832 
  61   0.0000       1.983978        53.9868 
  62   0.0000       2.004793        54.5532 
  63   0.0000       2.050470        55.7961 
  64   0.0000       2.051165        55.8150 
  65   0.0000       2.134815        58.0913 
  66   0.0000       2.154529        58.6277 
  67   0.0000       2.179523        59.3078 
  68   0.0000       2.179855        59.3169 
  69   0.0000       2.439729        66.3884 
  70   0.0000       2.439988        66.3954 
  71   0.0000       2.511138        68.3315 
  72   0.0000       2.739998        74.5591 
  73   0.0000       2.740630        74.5763 

                    ********************************
                    * MULLIKEN POPULATION ANALYSIS *
                    ********************************

------------------------------------------
FOD BASED MULLIKEN REDUCED ORBITAL CHARGES
------------------------------------------
  0 C s       :     0.000000  s :     0.000000
      pz      :     0.000000  p :     0.000000
      px      :     0.000000
      py      :     0.000000
      dz2     :     0.000000  d :     0.000000
      dxz     :     0.000000
      dyz     :     0.000000
      dx2y2   :     0.000000
      dxy     :     0.000000
  1 C s       :    -0.000000  s :    -0.000000
      pz      :     0.000000  p :     0.000000
      px      :     0.000000
      py      :     0.000000
      dz2     :     0.000000  d :     0.000000
      dxz     :     0.000000
      dyz     :     0.000000
      dx2y2   :     0.000000
      dxy     :     0.000000
  2 C s       :    -0.000000  s :    -0.000000
      pz      :     0.000000  p :     0.000000
      px      :     0.000000
      py      :     0.000000
      dz2     :     0.000000  d :     0.000000
      dxz     :     0.000000
      dyz     :     0.000000
      dx2y2   :     0.000000
      dxy     :     0.000000
  3 C s       :    -0.000000  s :    -0.000000
      pz      :     0.000000  p :     0.000000
      px      :     0.000000
      py      :     0.000000
      dz2     :     0.000000  d :     0.000000
      dxz     :     0.000000
      dyz     :     0.000000
      dx2y2   :     0.000000
      dxy     :     0.000000
  4 H s       :     0.000000  s :     0.000000
  5 H s       :     0.000000  s :     0.000000
  6 H s       :     0.000000  s :     0.000000
  7 H s       :     0.000000  s :     0.000000
  8 H s       :     0.000000  s :     0.000000
  9 H s       :     0.000000  s :     0.000000
 10 H s       :     0.000000  s :     0.000000
 11 H s       :     0.000000  s :     0.000000
 12 H s       :     0.000000  s :     0.000000


                     *******************************
                     * LOEWDIN POPULATION ANALYSIS *
                     *******************************

-------------------------------------------
LOEWDIN ATOMIC CHARGES AND SPIN POPULATIONS
-------------------------------------------
   0 C :   -0.079987    0.820476
   1 C :   -0.312793   -0.023105
   2 C :   -0.314489   -0.023113
   3 C :   -0.313613   -0.023173
   4 H :    0.112359    0.058987
   5 H :    0.113588    0.012094
   6 H :    0.113745    0.012235
   7 H :    0.114136    0.012114
   8 H :    0.113576    0.012151
   9 H :    0.113317    0.058224
  10 H :    0.113969    0.011760
  11 H :    0.112294    0.058832
  12 H :    0.113897    0.012519

----------------------------------------------------
LOEWDIN REDUCED ORBITAL CHARGES AND SPIN POPULATIONS
----------------------------------------------------
CHARGE
  0 C s       :     2.904657  s :     2.904657
      pz      :     0.995089  p :     3.082856
      px      :     1.046947
      py      :     1.040820
      dz2     :     0.008959  d :     0.092473
      dxz     :     0.009647
      dyz     :     0.013072
      dx2y2   :     0.028091
      dxy     :     0.032704
  1 C s       :     2.947007  s :     2.947007
      pz      :     1.106186  p :     3.287768
      px      :     1.087665
      py      :     1.093918
      dz2     :     0.010935  d :     0.078018
      dxz     :     0.010679
      dyz     :     0.024204
      dx2y2   :     0.012069
      dxy     :     0.020129
  2 C s       :     2.947194  s :     2.947194
      pz      :     1.100800  p :     3.289428
      px      :     1.107626
      py      :     1.081003
      dz2     :     0.027035  d :     0.077866
      dxz     :     0.004971
      dyz     :     0.011507
      dx2y2   :     0.012122
      dxy     :     0.022231
  3 C s       :     2.947138  s :     2.947138
      pz      :     1.106514  p :     3.288586
      px      :     1.078097
      py      :     1.103975
      dz2     :     0.013997  d :     0.077889
      dxz     :     0.011559
      dyz     :     0.019281
      dx2y2   :     0.012009
      dxy     :     0.021043
  4 H s       :     0.887641  s :     0.887641
  5 H s       :     0.886412  s :     0.886412
  6 H s       :     0.886255  s :     0.886255
  7 H s       :     0.885864  s :     0.885864
  8 H s       :     0.886424  s :     0.886424
  9 H s       :     0.886683  s :     0.886683
 10 H s       :     0.886031  s :     0.886031
 11 H s       :     0.887706  s :     0.887706
 12 H s       :     0.886103  s :     0.886103

SPIN
  0 C s       :     0.041909  s :     0.041909
      pz      :     0.672691  p :     0.781644
      px      :     0.016692
      py      :     0.092260
      dz2     :    -0.000974  d :    -0.003077
      dxz     :    -0.000020
      dyz     :    -0.000682
      dx2y2   :    -0.000502
      dxy     :    -0.000898
  1 C s       :    -0.005721  s :    -0.005721
      pz      :    -0.012917  p :    -0.034273
      px      :    -0.011201
      py      :    -0.010155
      dz2     :     0.000380  d :     0.016889
      dxz     :     0.006121
      dyz     :     0.007462
      dx2y2   :     0.000788
      dxy     :     0.002138
  2 C s       :    -0.005736  s :    -0.005736
      pz      :    -0.015243  p :    -0.034185
      px      :    -0.004044
      py      :    -0.014898
      dz2     :     0.011098  d :     0.016807
      dxz     :     0.000520
      dyz     :     0.003890
      dx2y2   :     0.000918
      dxy     :     0.000381
  3 C s       :    -0.005721  s :    -0.005721
      pz      :    -0.012861  p :    -0.034286
      px      :    -0.014988
      py      :    -0.006436
      dz2     :     0.001232  d :     0.016834
      dxz     :     0.009033
      dyz     :     0.003997
      dx2y2   :     0.000608
      dxy     :     0.001963
  4 H s       :     0.058987  s :     0.058987
  5 H s       :     0.012094  s :     0.012094
  6 H s       :     0.012235  s :     0.012235
  7 H s       :     0.012114  s :     0.012114
  8 H s       :     0.012151  s :     0.012151
  9 H s       :     0.058224  s :     0.058224
 10 H s       :     0.011760  s :     0.011760
 11 H s       :     0.058832  s :     0.058832
 12 H s       :     0.012519  s :     0.012519


                      *****************************
                      * MAYER POPULATION ANALYSIS *
                      *****************************

  NA   - Mulliken gross atomic population
  ZA   - Total nuclear charge
  QA   - Mulliken gross atomic charge
  VA   - Mayer's total valence
  BVA  - Mayer's bonded valence
  FA   - Mayer's free valence

  ATOM       NA         ZA         QA         VA         BVA        FA
  0 C      6.1542     6.0000    -0.1542     4.2105     3.5195     0.6910
  1 C      6.2200     6.0000    -0.2200     3.9383     3.9348     0.0035
  2 C      6.2275     6.0000    -0.2275     3.9364     3.9330     0.0035
  3 C      6.2237     6.0000    -0.2237     3.9379     3.9345     0.0035
  4 H      0.9096     1.0000     0.0904     0.9489     0.9438     0.0051
  5 H      0.9094     1.0000     0.0906     0.9589     0.9588     0.0002
  6 H      0.9083     1.0000     0.0917     0.9591     0.9589     0.0002
  7 H      0.9066     1.0000     0.0934     0.9588     0.9586     0.0002
  8 H      0.9097     1.0000     0.0903     0.9591     0.9589     0.0002
  9 H      0.9057     1.0000     0.0943     0.9489     0.9439     0.0049
 10 H      0.9072     1.0000     0.0928     0.9593     0.9591     0.0002
 11 H      0.9099     1.0000     0.0901     0.9489     0.9439     0.0051
 12 H      0.9083     1.0000     0.0917     0.9589     0.9587     0.0002

  Mayer bond orders larger than 0.100000
B(  0-C ,  1-C ) :   1.1233 B(  0-C ,  2-C ) :   1.1217 B(  0-C ,  3-C ) :   1.1231 
B(  1-C ,  4-H ) :   0.9293 B(  1-C ,  5-H ) :   0.9507 B(  1-C ,  6-H ) :   0.9508 
B(  2-C ,  7-H ) :   0.9506 B(  2-C ,  8-H ) :   0.9507 B(  2-C ,  9-H ) :   0.9291 
B(  3-C , 10-H ) :   0.9507 B(  3-C , 11-H ) :   0.9293 B(  3-C , 12-H ) :   0.9498 


-------
TIMINGS
-------

Total SCF time: 0 days 0 hours 3 min 42 sec 

Total time                  ....     222.387 sec
Sum of individual times     ....     177.834 sec  ( 80.0%)

Fock matrix formation       ....     156.234 sec  ( 70.3%)
  XC integration            ....      87.044 sec  ( 55.7% of F)
    Basis function eval.    ....       0.565 sec  (  0.6% of XC)
    Density eval.           ....       0.378 sec  (  0.4% of XC)
    XC-Functional eval.     ....       0.244 sec  (  0.3% of XC)
    XC-Potential eval.      ....       0.530 sec  (  0.6% of XC)
Diagonalization             ....       0.264 sec  (  0.1%)
Density matrix formation    ....       7.938 sec  (  3.6%)
Population analysis         ....       5.657 sec  (  2.5%)
Initial guess               ....       0.004 sec  (  0.0%)
Orbital Transformation      ....       0.000 sec  (  0.0%)
Orbital Orthonormalization  ....       0.002 sec  (  0.0%)
DIIS solution               ....       4.536 sec  (  2.0%)
Grid generation             ....       3.201 sec  (  1.4%)


-------------------------------------------------------------------------------
                          DFT DISPERSION CORRECTION                            
                                                                               
                              DFTD3 V3.1  Rev 1                                
                          USING Becke-Johnson damping                          
-------------------------------------------------------------------------------
The B3LYP functional is recognized
Active option DFTDOPT                   ...         4   

molecular C6(AA) [au] = 1133.315040 


            DFT-D V3
 parameters
 s6 scaling factor         :     1.0000 
 a1 scaling factor         :     0.3981 
 s8 scaling factor         :     1.9889 
 a2 scaling factor         :     4.4211 
 ad hoc parameters k1-k3   :    16.0000     1.3333    -4.0000 

 Edisp/kcal,au: -8.704776668625  -0.013871943134 
 E6   /kcal   :  -4.310536810 
 E8   /kcal   :  -4.394239859 
 % E8         :  50.480788032 

-------------------------   ----------------
Dispersion correction           -0.013871943
-------------------------   ----------------


-------------------------   --------------------
FINAL SINGLE POINT ENERGY      -157.556990499441
-------------------------   --------------------

                                *** OPTIMIZATION RUN DONE ***

                            ***************************************
                            *     ORCA property calculations      *
                            ***************************************

                                    ---------------------
                                    Active property flags
                                    ---------------------
   (+) Dipole Moment


------------------------------------------------------------------------------
                       ORCA ELECTRIC PROPERTIES CALCULATION
------------------------------------------------------------------------------

Dipole Moment Calculation                       ... on
Quadrupole Moment Calculation                   ... off
Polarizability Calculation                      ... off
GBWName                                         ... orca2.gbw
Electron density file                           ... orca2.scfp
The origin for moment calculation is the CENTER OF MASS  = (-0.013841, -0.014327  0.123097)

-------------
DIPOLE MOMENT
-------------
                                X             Y             Z
Electronic contribution:     -0.00655       0.19426      -0.58062
Nuclear contribution   :      0.00941      -0.22478       0.66439
                        -----------------------------------------
Total Dipole Moment    :      0.00286      -0.03052       0.08378
                        -----------------------------------------
Magnitude (a.u.)       :      0.08921
Magnitude (Debye)      :      0.22675



--------------------
Rotational spectrum 
--------------------
 
Rotational constants in cm-1:     0.264944     0.264720     0.143780 
Rotational constants in MHz :  7942.821176  7936.103636  4310.404197 

 Dipole components along the rotational axes: 
x,y,z [a.u.] :     0.002251    -0.000885     0.089176 
x,y,z [Debye]:     0.005723    -0.002250     0.226667 

 

Timings for individual modules:

Sum of individual times         ...     5481.508 sec (=  91.358 min)
GTO integral calculation        ...      125.816 sec (=   2.097 min)   2.3 %
SCF iterations                  ...     5183.981 sec (=  86.400 min)  94.6 %
SCF Gradient evaluation         ...       93.567 sec (=   1.559 min)   1.7 %
Geometry relaxation             ...       78.143 sec (=   1.302 min)   1.4 %
                             ****ORCA TERMINATED NORMALLY****
TOTAL RUN TIME: 0 days 1 hours 35 minutes 1 seconds 438 msec
