14
Properties=species:S:1:pos:R:3:forces:R:3:gap_forces:R:3 energy=-4274.082984016216 name=nbu_straight gap_energy=-4274.082984016216 config_type=start_0 pbc="F F F"
C       -2.22399417      -0.53079947       0.34868034      16.95654850       2.89565291       5.28301113      16.95654850       2.89565291       5.28301113
C       -0.97063151      -0.12676156       1.14897132     -11.24491535     -11.06396265      -2.18528778     -11.24491535     -11.06396265      -2.18528778
C        1.14814948       0.04667730      -0.41888641       4.85039114      -2.91004740      -0.76325635       4.85039114      -2.91004740      -0.76325635
C        2.31219992      -0.34080190       0.40954283     -77.87218918     -49.11734066       3.46836123     -77.87218918     -49.11734066       3.46836123
H       -2.99058215      -0.42065348      -0.13614861     -11.11229085       1.10347303      -2.89604106     -11.11229085       1.10347303      -2.89604106
H       -2.15971365       0.88841809      -0.71811451      -0.05836173       1.54401457       1.58896602      -0.05836173       1.54401457       1.58896602
H       -1.68158677      -1.32238542      -1.31295659       0.92769593      -3.75763977      -2.16262392       0.92769593      -3.75763977      -2.16262392
H       -0.47044977       0.72589121       0.92553324       4.81576988       2.82218095       0.65853726       4.81576988       2.82218095       0.65853726
H       -0.44821894      -1.29473827       1.29477068      -0.49494253       8.62176322      -1.19768337      -0.49494253       8.62176322      -1.19768337
H        1.56784149      -0.56066783      -1.13550649      -2.80427788      -2.01511552      -5.69097540      -2.80427788      -2.01511552      -5.69097540
H        0.43670959       0.94864145      -1.00008374      -0.30667157      -1.03185306       1.47599618      -0.30667157      -1.03185306       1.47599618
H        1.88720570       0.98756685       1.84958689       0.24537317       3.72044961       6.35248532       0.24537317       3.72044961       6.35248532
H        1.46386457      -1.06731734       1.23977511       5.75041282       0.69162568      -3.52957918       5.75041282       0.69162568      -3.52957918
H        2.80780964       0.00519607       0.42257629      70.34745765      48.49679908      -0.40191009      70.34745765      48.49679908      -0.40191009
14
Properties=species:S:1:pos:R:3:forces:R:3:gap_forces:R:3 energy=-4228.577408317129 name=nbu_straight gap_energy=-4228.577408317129 config_type=start_1 pbc="F F F"
C       -1.64242178      -0.40584981       0.17999148     -63.69088092      18.94837312     -80.02726577     -63.69088092      18.94837312     -80.02726577
C       -1.06230972      -0.57319269       0.90161891      70.58392880     -10.41651815      77.51914782      70.58392880     -10.41651815      77.51914782
C        0.92068108       0.26621537      -0.37552528     -87.03395147      22.60982489    -157.43976350     -87.03395147      22.60982489    -157.43976350
C        1.29587499       0.16343099       0.33992324      75.17700306     -23.25595927     153.17024539      75.17700306     -23.25595927     153.17024539
H       -2.67251145      -0.20589073       0.40647026      -2.46435729      -3.16636798       5.51444936      -2.46435729      -3.16636798       5.51444936
H       -2.13181645       0.76926933      -0.38356119       3.58785613       3.17955861      -0.23857117       3.58785613       3.17955861      -0.23857117
H       -2.31095028      -0.30188780      -1.00455138       2.66061223      -3.63043939      -0.60244470       2.66061223      -3.63043939      -0.60244470
H       -1.02438674       0.52256278       1.62492200      -0.06042514      -0.51190105      -3.41992964      -0.06042514      -0.51190105      -3.41992964
H       -0.25384389      -0.93077866       1.31651635       0.40040437      -1.95867913      -8.18577475       0.40040437      -1.95867913      -8.18577475
H        0.66608015      -0.19387196      -1.27879574       0.52690907      -0.24185813      11.36931045       0.52690907      -0.24185813      11.36931045
H        1.18453232       1.64943492      -0.42877881       1.78826934      -1.10023128       1.35240446       1.78826934      -1.10023128       1.35240446
H        2.18268713       0.53122026       1.99592002       0.12333981       9.48444496       5.36422469       0.12333981       9.48444496       5.36422469
H        2.22067358      -0.74417927       1.95139930      -0.71308991     -12.11958058       4.92632944      -0.71308991     -12.11958058       4.92632944
H        2.61055859       0.31472783       0.33440141      -0.88561810       2.17933339      -9.30236208      -0.88561810       2.17933339      -9.30236208
14
Properties=species:S:1:pos:R:3:forces:R:3:gap_forces:R:3 energy=-4278.55611822116 name=nbu_straight gap_energy=-4278.55611822116 config_type=start_2 pbc="F F F"
C       -1.98468165      -0.27794804      -0.39446572       1.31757883      15.31112129      12.98897047       1.31757883      15.31112129      12.98897047
C       -0.32659817      -0.46187560       0.58069609     -36.01115808     -24.54063738       6.51843028     -36.01115808     -24.54063738       6.51843028
C        0.47846289       0.15251698       0.46026070      19.54876154      31.34631878     -10.72476772      19.54876154      31.34631878     -10.72476772
C        1.59310068      -0.28652107       0.64219438      11.14935508      -7.45276543       1.47172388      11.14935508      -7.45276543       1.47172388
H       -3.12490080      -0.41328203       0.19523528       3.65788572       4.03925347       3.15963213       3.65788572       4.03925347       3.15963213
H       -1.88056214       1.20898803      -0.21661273      -5.25971760      -4.66236288      -2.77344029      -5.25971760      -4.66236288      -2.77344029
H       -2.14133031      -1.00539811      -0.78303917      -0.12064684     -13.39974533     -14.73484729      -0.12064684     -13.39974533     -14.73484729
H       -1.02927215       0.48634469       1.64037606      -1.16944914       1.12950130       0.35769904      -1.16944914       1.12950130       0.35769904
H       -0.72521246      -1.29713585       1.01193601       0.32825510      -0.15503835      -0.75500639       0.32825510      -0.15503835      -0.75500639
H        1.10613673      -0.39661849      -1.30959037      -1.88141042       0.34662116       1.51346090      -1.88141042       0.34662116       1.51346090
H        0.05826793       1.02464364      -0.58551932       4.56623590      -3.89985328       2.65779333       4.56623590      -3.89985328       2.65779333
H        1.85996665       1.09279173       1.69680947       2.17307471       0.71997241      -3.36782483       2.17307471       0.71997241      -3.36782483
H        1.78069222      -1.32862893       1.09520049       2.55551628      -2.63835489      -0.02820254       2.55551628      -2.63835489      -0.02820254
H        2.70190627      -0.05011046      -0.66784658      -0.85428108       3.85596912       3.71637902      -0.85428108       3.85596912       3.71637902
14
Properties=species:S:1:pos:R:3:forces:R:3:gap_forces:R:3 energy=-4209.284918935373 name=nbu_straight gap_energy=-4209.284918935373 config_type=start_3 pbc="F F F"
C       -1.64049655       0.37092285      -0.23073279     -17.42878947     -18.20936180       6.74141781     -17.42878947     -18.20936180       6.74141781
C       -0.90746438      -0.17187325       0.62534271       2.64860541      -3.86295578      -9.67481749       2.64860541      -3.86295578      -9.67481749
C        0.17736021      -0.49563459      -0.14809690       4.60188819      -5.85485048       9.34912269       4.60188819      -5.85485048       9.34912269
C        2.52793929       0.45181817       0.79385737    -133.77347247     147.03619823     433.76348025    -133.77347247     147.03619823     433.76348025
H       -2.69591803      -0.12125788      -0.14842697      -6.45405207      -0.94764856       5.02782477      -6.45405207      -0.94764856       5.02782477
H       -1.84454382       0.82090215      -0.76326314       4.40767842      26.86161847     -16.87574282       4.40767842      26.86161847     -16.87574282
H       -1.89557194      -0.58753588      -1.11741300       1.04290145      -3.66827352      -2.00415575       1.04290145      -3.66827352      -2.00415575
H       -0.65485450      -0.29797840       1.31986870       8.42317705      -6.44200787      20.85735750       8.42317705      -6.44200787      20.85735750
H       -0.62941244      -1.28437111       1.06019890       0.14474848       4.00094556       2.55532224       0.14474848       4.00094556       2.55532224
H        0.58747071      -0.09973779      -0.84997713       6.51470659       6.94653683     -12.48204441       6.51470659       6.94653683     -12.48204441
H        0.84531341       1.42286954      -0.66463382       2.09846903       4.27349890      -4.49554918       2.09846903       4.27349890      -4.49554918
H        1.78259200       0.70890475       1.64141479       2.44465520       1.03479305      -6.22954228       2.44465520       1.03479305      -6.22954228
H        2.12320764      -1.33179231       0.88679628      -1.96155196      -4.76988042      -0.17892266      -1.96155196      -4.76988042      -0.17892266
H        2.62418869       0.33624080       0.46132005     127.29103615    -146.39861262    -426.35375066     127.29103615    -146.39861262    -426.35375066
14
Properties=species:S:1:pos:R:3:forces:R:3:gap_forces:R:3 energy=-4145.212873363774 name=nbu_straight gap_energy=-4145.212873363774 config_type=start_4 pbc="F F F"
C       -1.87202517      -0.08644344      -0.46315414       0.73597153      -3.51402127       8.17597426       0.73597153      -3.51402127       8.17597426
C       -0.63526561      -0.66392603       0.86429868     403.90508910      -1.87056343    -281.66554700     403.90508910      -1.87056343    -281.66554700
C        0.83525877      -0.17978141      -0.74918258    -349.07304843     204.47364073     259.80410195    -349.07304843     204.47364073     259.80410195
C        2.07719303       0.02045858       0.74922779      -8.44516576       0.11624399      -1.95840324      -8.44516576       0.11624399      -1.95840324
H       -2.81488869      -0.55524688      -0.14521337      -2.80010210       0.90173242       1.63926118      -2.80010210       0.90173242       1.63926118
H       -1.79104711       1.08719063      -0.09201285      -0.52738754       0.53335256      -5.04232154      -0.52738754       0.53335256      -5.04232154
H       -2.01515576      -0.95509078      -1.44385080       2.93036008       2.04165596      -2.59450008       2.93036008       2.04165596      -2.59450008
H       -0.70622599       0.92451973       1.49588190      -1.16885470      -1.21155292       1.90814130      -1.16885470      -1.21155292       1.90814130
H       -0.91021405      -0.65893385       1.05370492    -401.82741872       3.72501289     274.41894620    -401.82741872       3.72501289     274.41894620
H        1.10221707      -0.33321008      -0.94362338     344.82401938    -200.62637096    -249.82023932     344.82401938    -200.62637096    -249.82023932
H        0.60328513       1.10006234      -0.04384232      -0.91587420      -4.71383618      -9.27257783      -0.91587420      -4.71383618      -9.27257783
H        1.16901894       0.82174360       1.29914502      11.03516957      -3.36216600       2.53421742      11.03516957      -3.36216600       2.53421742
H        2.19462600      -1.22878196       1.51857664      -0.45373970       1.34576499      -1.10495039      -0.45373970       1.34576499      -1.10495039
H        2.94591863       0.06140132       0.06886218       1.78098150       2.16110721       2.97789710       1.78098150       2.16110721       2.97789710
14
Properties=species:S:1:pos:R:3:forces:R:3:gap_forces:R:3 energy=-4240.477769517405 name=nbu_straight gap_energy=-4240.477769517405 config_type=start_5 pbc="F F F"
C       -1.86546361       0.06965028      -0.11839503      -8.78146340     -23.10975587      20.06707770      -8.78146340     -23.10975587      20.06707770
C       -0.13507792       0.06693311       0.21361780    -170.34569634    -134.41172588       5.03043610    -170.34569634    -134.41172588       5.03043610
C        0.46215527       0.52847884       0.19130680     155.04760831     142.09718273      -7.93067962     155.04760831     142.09718273      -7.93067962
C        1.61997829       0.15406388       0.19850588      10.92637046      -8.61196023       2.95991502      10.92637046      -8.61196023       2.95991502
H       -2.84439424      -0.44485053       0.14955419      -4.74754949       6.19856117       7.15298642      -4.74754949       6.19856117       7.15298642
H       -1.56871835       0.42994455      -0.66416910      11.57561899      20.98455179     -24.48533717      11.57561899      20.98455179     -24.48533717
H       -2.02429593      -1.01020778      -0.80224853       3.37437268      -5.72323423      -5.22094691       3.37437268      -5.72323423      -5.22094691
H       -0.66815922       0.78298027       1.29777305      -2.14896836       1.73202158       2.09047297      -2.14896836       1.73202158       2.09047297
H       -0.99047298      -1.04869491       1.08506777       0.18185941      -1.86839866       0.84648536       0.18185941      -1.86839866       0.84648536
H        1.08392068      -0.37072381      -1.20489007      -1.56350336      -1.40496704      -3.31527404      -1.56350336      -1.40496704      -3.31527404
H        0.50809807       1.75891006      -0.52942161      -0.38138285       3.71321077       0.45475748      -0.38138285       3.71321077       0.45475748
H        2.20855975       0.76517365       1.53566153       3.15565667       3.92285395       3.02929787       3.15565667       3.92285395       3.02929787
H        2.15557217      -0.91006847       0.90633415       0.38312931      -1.14808074      -0.56181521       0.38312931      -1.14808074      -0.56181521
H        2.73568927      -0.18264768       0.34486374       3.32394797      -2.37025933      -0.11737598       3.32394797      -2.37025933      -0.11737598
14
Properties=species:S:1:pos:R:3:forces:R:3:gap_forces:R:3 energy=-4281.879809033538 name=nbu_straight gap_energy=-4281.879809033538 config_type=start_6 pbc="F F F"
C       -1.92626308      -0.60898397      -0.02234246     -17.95141453      -4.45043789      -9.45382168     -17.95141453      -4.45043789      -9.45382168
C       -0.71517020      -0.31147033       0.31208504       4.34207956      -0.25934406      14.41161552       4.34207956      -0.25934406      14.41161552
C        0.23598209       0.15191037      -0.36929407      22.67243443       3.43994132     -11.13024269      22.67243443       3.43994132     -11.13024269
C        1.91668953      -0.19789166       0.32232071     -33.90605704     -12.57192445      16.06302368     -33.90605704     -12.57192445      16.06302368
H       -3.20630952      -0.21915452      -0.23745154       0.47775211      -4.08206090       3.63927378       0.47775211      -4.08206090       3.63927378
H       -2.63472152       1.04748377      -0.61107190      -0.45014376       8.15355275       0.05693352      -0.45014376       8.15355275       0.05693352
H       -1.83293465      -0.85058794      -0.87807696       0.29377453      -8.34782531      -2.93618018       0.29377453      -8.34782531      -2.93618018
H       -0.75630075       0.55941193       2.08291579       0.52003194       6.10583301       9.95305091       0.52003194       6.10583301       9.95305091
H       -0.80259442      -1.70029709       1.42258215      -2.16192477      -1.95462056      -2.38075564      -2.16192477      -1.95462056      -2.38075564
H        0.56201004      -1.06677801      -1.26562542       3.08811304       0.05383942      -0.08357245       3.08811304       0.05383942      -0.08357245
H        0.44109872       0.80263395      -1.13519037      -3.25384877       2.11452066       0.37526502      -3.25384877       2.11452066       0.37526502
H        1.26839994       0.71721559       1.35933941       1.71185557      -4.18298814      -6.14229844       1.71185557      -4.18298814      -6.14229844
H        2.22098426      -0.81030309       1.35403294      -0.01682018       1.47072463      -3.25993571      -0.01682018       1.47072463      -3.25993571
H        2.47084809       0.23947903       0.16757407      24.63416787      14.51078951      -9.11235563      24.63416787      14.51078951      -9.11235563
14
Properties=species:S:1:pos:R:3:forces:R:3:gap_forces:R:3 energy=-4259.662912263852 name=nbu_straight gap_energy=-4259.662912263852 config_type=start_7 pbc="F F F"
C       -1.55591320      -0.64764685      -0.10272067     -15.43310018       3.42156037      -9.95809199     -15.43310018       3.42156037      -9.95809199
C       -0.66630730      -0.73795351       0.73079473     -30.49957294     -87.54470793    -104.94182602     -30.49957294     -87.54470793    -104.94182602
C        0.81532932       0.35025286       0.05290375     -31.74013687       4.55383561     -22.61646839     -31.74013687       4.55383561     -22.61646839
C        1.81578273       0.26519632       0.51936759      30.95290284       2.28094980      21.28465001      30.95290284       2.28094980      21.28465001
H       -3.04241010      -0.36841280       1.01083086      -4.07019575      -2.21029078       1.60999056      -4.07019575      -2.21029078       1.60999056
H       -2.30141963       0.67774804       0.06390445       2.13200278       4.48586957      -2.12816715       2.13200278       4.48586957      -2.12816715
H       -1.93839450      -1.21596153      -1.13212326       3.87553733      -1.82112050       3.70637022       3.87553733      -1.82112050       3.70637022
H       -0.32648818       1.05387600       1.68815854      -2.22610452       3.93311867       2.32213952      -2.22610452       3.93311867       2.32213952
H       -0.52075016      -0.44485265       1.11205766      46.02723253      81.07249593     107.63856060      46.02723253      81.07249593     107.63856060
H        1.05291807      -0.23176825      -0.73831024      -3.98849924      -8.82724223       2.36749261      -3.98849924      -8.82724223       2.36749261
H        0.54259083       1.13139770      -0.37564762      -6.22461286       3.28633558       5.62183289      -6.22461286       3.28633558       5.62183289
H        1.69335158       0.52588027       1.94594233       1.78301983      -0.20733959      -6.70729576       1.78301983      -0.20733959      -6.70729576
H        2.28121143      -1.22675141       1.62150996       1.77484535      -2.33284367      -0.86142685       1.77484535      -2.33284367      -0.86142685
H        2.84223497       0.81217648      -0.38865456       7.63668170      -0.09062081       2.66223974       7.63668170      -0.09062081       2.66223974
14
Properties=species:S:1:pos:R:3:forces:R:3:gap_forces:R:3 energy=-4098.263840649314 name=nbu_straight gap_energy=-4098.263840649314 config_type=start_8 pbc="F F F"
C       -1.50042606      -0.06134900       0.05080096     -14.19442309      -6.43578029     -11.88667375     -14.19442309      -6.43578029     -11.88667375
C       -0.51443608       0.12383547       0.55684003      28.83895574      -0.16513973       5.16349561      28.83895574      -0.16513973       5.16349561
C        0.57234080       0.49574858      -0.42522991     917.30839820   -1332.48231359     909.69384271     917.30839820   -1332.48231359     909.69384271
C        1.77144335       0.05992251       0.93792339     -20.61740277     -16.43656320       3.49019304     -20.61740277     -16.43656320       3.49019304
H       -2.53212408      -0.74631822      -0.08579897      -5.10075301      -5.00199336       0.95170778      -5.10075301      -5.00199336       0.95170778
H       -2.10295781       0.08370839      -0.91633963       2.67246089       5.25275245      -4.78804594       2.67246089       5.25275245      -4.78804594
H       -1.92636479      -0.61429200      -1.15975479       5.08118546      -0.19992716      -5.88094739       5.08118546      -0.19992716      -5.88094739
H       -1.19409299       0.59274391       1.03745478      -4.37250546      14.32964332      13.37764417      -4.37250546      14.32964332      13.37764417
H       -0.37559365      -1.31973746       0.93573990      -0.65737029      -2.55595678       1.82675775      -0.65737029      -2.55595678       1.82675775
H        1.22377965      -0.82287877      -0.97374552      -2.80903811       4.51581591      -0.25133941      -2.80903811       4.51581591      -0.25133941
H        0.46668260       0.64622541      -0.52851931    -933.59014110    1322.26449252    -909.41758589    -933.59014110    1322.26449252    -909.41758589
H        1.10754201       0.64376420       1.53384559       0.19340153      -5.22046798       2.28085819       0.19340153      -5.22046798       2.28085819
H        2.02629539      -1.10077591       0.77093589       1.06178567       2.08420679       3.90997668       1.06178567       2.08420679       3.90997668
H        2.25460335       0.57261243       0.79553653      26.18544634      20.05123110      -8.46988354      26.18544634      20.05123110      -8.46988354
14
Properties=species:S:1:pos:R:3:forces:R:3:gap_forces:R:3 energy=-4270.751210960943 name=nbu_straight gap_energy=-4270.751210960943 config_type=start_9 pbc="F F F"
C       -1.71779678      -0.20509833       0.01110879     -13.11334672       1.36595587     -13.78147498     -13.11334672       1.36595587     -13.78147498
C       -0.84770701      -0.22939498       0.97726390      15.56704096      -4.78099898       3.30545015      15.56704096      -4.78099898       3.30545015
C        1.06407839      -0.52766824       0.53100293     -78.60089178     -40.26528378     -20.04813824     -78.60089178     -40.26528378     -20.04813824
C        1.87349513      -0.02791227       0.65011169      62.03446194      32.65276552      10.03483834      62.03446194      32.65276552      10.03483834
H       -2.73827104      -0.21136668       0.60104218       0.95620379      -0.86110089      -3.46460044       0.95620379      -0.86110089      -3.46460044
H       -2.20686235       1.16017860      -1.10084474       1.23651996       1.17143064       0.20678770       1.23651996       1.17143064       0.20678770
H       -2.05645473      -0.57001229      -1.10189888       2.84696402      -0.05906520       3.35563394       2.84696402      -0.05906520       3.35563394
H       -1.69732077       0.34763101       1.65633697      -0.20697408       3.93453190       7.47451644      -0.20697408       3.93453190       7.47451644
H       -0.19014159      -1.40529385       1.08852116       9.67520417       4.36521295      -0.16361993       9.67520417       4.36521295      -0.16361993
H        0.91649805      -0.40637586      -1.35045856       3.26133058      -3.44157601       8.22220873       3.26133058      -3.44157601       8.22220873
H        0.02391112       1.31919914      -0.58736959      -3.33621521       1.87370291       0.99258851      -3.33621521       1.87370291       0.99258851
H        1.52040235       0.59857346       1.23678754      -1.18405735       7.35171509       4.53010004      -1.18405735       7.35171509       4.53010004
H        2.31606502      -1.04618343       0.95270114       4.36352028      -3.25029827       0.36352675       4.36352028      -3.25029827       0.36352675
H        2.91601151       0.28779666       0.01926073      -3.49976057      -0.05699176      -1.02781702      -3.49976057      -0.05699176      -1.02781702
14
Properties=species:S:1:pos:R:3:forces:R:3:gap_forces:R:3 energy=-4294.400759118426 name=nbu_straight gap_energy=-4294.400759118426 config_type=start_10 pbc="F F F"
C       -1.68653587       0.03143451       0.06175228      -6.11675907     -10.69064330      -1.89886345      -6.11675907     -10.69064330      -1.89886345
C       -0.46820707      -0.65441065       0.48203873       5.04603410       3.20599087      -4.37344624       5.04603410       3.20599087      -4.37344624
C        0.83221318      -0.27445971      -0.47379180      -3.31474892       3.73097961      13.84573199      -3.31474892       3.73097961      13.84573199
C        1.79028094       0.10337214       0.60717863      10.79135185       8.26596238      -6.61915067      10.79135185       8.26596238      -6.61915067
H       -2.50056295      -0.71663545       0.80814875       2.00863546       4.57322790      -1.78224659       2.00863546       4.57322790      -1.78224659
H       -1.94558022       0.65730686      -0.88937568       0.93881504       3.96539489       0.84529225       0.93881504       3.96539489       0.84529225
H       -1.69490446      -0.94576322      -0.86554872      -3.59197091      -1.06556600       1.47110276      -3.59197091      -1.06556600       1.47110276
H       -0.53872573       0.33890047       2.05873529      -1.63977233       3.49654354       2.47182370      -1.63977233       3.49654354       2.47182370
H       -0.24340684      -1.63532689       1.24683869      -1.59452939      -5.08893568      -1.66808012      -1.59452939      -5.08893568      -1.66808012
H        1.29154415      -1.09214384      -0.84828960      -1.72750577      -0.93679699      -6.02380931      -1.72750577      -0.93679699      -6.02380931
H        0.54816886       0.79328329      -0.61390016       3.01505191      -4.12466726       0.18263878       3.01505191      -4.12466726       0.18263878
H        2.03810680       1.09623562       1.68859101      -2.01183214      -1.37855715      -3.60130953      -2.01183214      -1.37855715      -3.60130953
H        1.95186181      -0.68799152       0.96050271      -2.95199010      -9.89814855       8.11859240      -2.95199010      -9.89814855       8.11859240
H        2.83881815       0.39886966       0.26175342       1.14922027       5.94521573      -0.96827597       1.14922027       5.94521573      -0.96827597
14
Properties=species:S:1:pos:R:3:forces:R:3:gap_forces:R:3 energy=-4246.580050952202 name=nbu_straight gap_energy=-4246.580050952202 config_type=start_11 pbc="F F F"
C       -1.98264297       0.32246287      -0.46860135    -187.48362391     -37.70782792     113.32987143    -187.48362391     -37.70782792     113.32987143
C       -0.67352039       0.19749593       0.92720159      -0.90628685      -9.55575862      -6.26848784      -0.90628685      -9.55575862      -6.26848784
C        1.14232156       0.20460913       0.34866587     -45.08281894      -1.80000062     -42.61202387     -45.08281894      -1.80000062     -42.61202387
C        1.82438651       0.34389475       1.11554532      35.91957677       9.01177440      30.98660761      35.91957677       9.01177440      30.98660761
H       -2.69434246       0.18644371       0.03752162     -13.32092302       0.40706790       2.38051256     -13.32092302       0.40706790       2.38051256
H       -1.60070048       0.39617129      -0.69444427     194.05345686      39.42252718    -116.69708489     194.05345686      39.42252718    -116.69708489
H       -1.31433880      -1.12351479      -1.63310148       0.81390058      -3.46416766      -2.71225156       0.81390058      -3.46416766      -2.71225156
H       -0.80381813       0.46068640       1.70570714       5.10880688       1.75618914       6.90150122       5.10880688       1.75618914       6.90150122
H       -0.74290171      -0.70315822       1.48626273       8.22033757       7.00136367       1.64357164       8.22033757       7.00136367       1.64357164
H        0.95585299      -0.06823151      -1.00880073      -1.27730951       3.81648421      -1.54740116      -1.27730951       3.81648421      -1.54740116
H        0.54361858       1.36994391      -0.55531613       6.32773232      -0.39660054       5.91701932       6.32773232      -0.39660054       5.91701932
H        1.93867451       1.25120606       1.86642942      -5.24689401       2.68802530       0.59620431      -5.24689401       2.68802530       0.59620431
H        2.02351443      -0.75030467       1.16275146      -2.34453258     -10.04955217       8.84081977      -2.34453258     -10.04955217       8.84081977
H        2.89961479      -0.41041544       0.41798212       5.21857783      -1.12952426      -0.75885854       5.21857783      -1.12952426      -0.75885854
14
Properties=species:S:1:pos:R:3:forces:R:3:gap_forces:R:3 energy=-4276.632734439048 name=nbu_straight gap_energy=-4276.632734439048 config_type=start_12 pbc="F F F"
C       -1.73419514      -0.50076291      -0.10004926      -4.56411672       6.91476737       0.69071570      -4.56411672       6.91476737       0.69071570
C       -0.80665361       0.01319461       0.84509609      48.09859125     -42.46876465     -48.39718578      48.09859125     -42.46876465     -48.39718578
C        0.62580120       0.06225803      -0.02864200      -3.07814084       2.03776491      -0.40343999      -3.07814084       2.03776491      -0.40343999
C        2.01672753      -0.07355593       0.42112969     -31.84441700      -9.55853018      18.14994460     -31.84441700      -9.55853018      18.14994460
H       -2.45020644      -0.59378831       0.77442952      -4.80788007      -6.24421264      -2.87532542      -4.80788007      -6.24421264      -2.87532542
H       -2.43060677       0.60695075      -0.59941505       0.64808232       0.29098886       2.71436635       0.64808232       0.29098886       2.71436635
H       -1.76930711      -0.69521074      -1.17461646       0.07267606      -4.08711892       0.56774922       0.07267606      -4.08711892       0.56774922
H       -1.13823293       0.33668293       1.27854368     -28.04237740      38.57800947      45.87199011     -28.04237740      38.57800947      45.87199011
H       -0.09940975      -1.15768733       1.09795236      -3.71432658       4.17400467      -0.11879274      -3.71432658       4.17400467      -0.11879274
H        0.53381330      -0.75489709      -1.05429641       4.98624441      -1.11062940       0.27000932       4.98624441      -1.11062940       0.27000932