14
Properties=species:S:1:pos:R:3:forces:R:3:gap_forces:R:3 energy=-4274.0117598058705 name=tbu gap_energy=-4274.0117598058705 config_type=start_0 pbc="F F F"
C       -0.58014649       0.39054225      -0.66455507      16.61901152       8.37092245      -9.56739462      16.61901152       8.37092245      -9.56739462
C        0.83359154       1.25794752       0.11610557     -12.81427004       7.29224093      -4.55430355     -12.81427004       7.29224093      -4.55430355
C       -1.43020252       0.05446585       0.13991377     -15.97552813     -17.85120111       9.86903372     -15.97552813     -17.85120111       9.86903372
C        0.84391182      -0.97018897      -0.02607653     -10.86783143       4.86333233       7.06382862     -10.86783143       4.86333233       7.06382862
H        0.36742575       0.25819259      -1.28435827      -0.08757563      -2.32618457       1.41682418      -0.08757563      -2.32618457       1.41682418
H       -0.17038573       2.26667968       0.17498493       4.27504859      -4.18933780       0.69804599       4.27504859      -4.18933780       0.69804599
H        1.55405267       1.47118923      -0.41389303       2.76582418      -1.07191894      -0.66582250       2.76582418      -1.07191894      -0.66582250
H        0.43934178       1.58203575       0.89869798       3.90193596      -5.98846056       1.22763565       3.90193596      -5.98846056       1.22763565
H       -1.59635545      -0.69805856       0.84707287       1.84696121       6.60880148      -2.03238897       1.84696121       6.60880148      -2.03238897
H       -1.74552517       0.17752634      -0.57334536      -0.68431162       6.18777417      -1.81539482      -0.68431162       6.18777417      -1.81539482
H       -1.54879742      -0.92837299      -0.64748466      -2.69208999      -1.97135287       1.41675321      -2.69208999      -1.97135287       1.41675321
H        0.81105457      -1.01371568       1.31540095       3.82545499      -2.47336211      -3.72419450       3.82545499      -2.47336211      -3.72419450
H        1.67368057      -0.76774952      -0.20873776      10.88164274       3.88010791       0.54446008      10.88164274       3.88010791       0.54446008
H        0.70535480      -2.87721371      -0.50702419      -0.99427235      -1.33136130       0.12291751      -0.99427235      -1.33136130       0.12291751
14
Properties=species:S:1:pos:R:3:forces:R:3:gap_forces:R:3 energy=-4225.84896981259 name=tbu gap_energy=-4225.84896981259 config_type=start_1 pbc="F F F"
C        0.45436225       0.34791134      -0.20763929      50.06049145    -140.66009402      15.95774056      50.06049145    -140.66009402      15.95774056
C        0.15317605       1.12398616      -0.26005022     -35.88762470      71.59488857     -35.24005129     -35.88762470      71.59488857     -35.24005129
C       -1.72864342      -0.05536608      -0.22844477      46.25272114      -8.70558134     -40.65355607      46.25272114      -8.70558134     -40.65355607
C        0.80262988      -1.31537185       0.25402154     -16.90252309      56.17229469    -144.35981744     -16.90252309      56.17229469    -144.35981744
H        0.09966336       0.05063069      -1.06065426      -1.79560310       4.97708349     -10.55379695      -1.79560310       4.97708349     -10.55379695
H       -0.00106718       1.65915842       0.03118558     -17.37630613      61.36515484      24.75022545     -17.37630613      61.36515484      24.75022545
H        1.90563489       1.29728077       0.02120239       2.11819048       0.75476484      -1.04978374       2.11819048       0.75476484      -1.04978374
H        0.27481545       1.37948896       1.38753324      -3.16888429      -3.34485018       1.52230145      -3.16888429      -3.34485018       1.52230145
H       -2.09902481       0.05071014       0.29704340     -28.95085801       6.22397516      44.50845481     -28.95085801       6.22397516      44.50845481
H       -1.92860245       0.99043091      -0.25929322      -1.11105456      -4.24778847      -0.02863379      -1.11105456      -4.24778847      -0.02863379
H       -1.44721164      -0.99804904      -0.27745938      -8.89572775       6.32536198       0.39835875      -8.89572775       6.32536198       0.39835875
H        0.87079423      -1.45554351       0.72865725      17.89753308     -38.29955128     160.10664488      17.89753308     -38.29955128     160.10664488
H        2.11356701      -1.33542947       0.13659652       4.18022260       1.25082395       3.73254269       4.18022260       1.25082395       3.73254269
H        0.80616556      -1.82456166      -0.42296482      -6.42057714     -13.40648225     -19.09062932      -6.42057714     -13.40648225     -19.09062932
14
Properties=species:S:1:pos:R:3:forces:R:3:gap_forces:R:3 energy=-4268.020238358924 name=tbu gap_energy=-4268.020238358924 config_type=start_2 pbc="F F F"
C        0.37436192       0.30002727      -0.56709147      -4.15759642      -8.81903746      -4.34786579      -4.15759642      -8.81903746      -4.34786579
C        0.54486034       1.52961993      -0.04068192     -11.53287496       8.37431282      11.17780129     -11.53287496       8.37431282      11.17780129
C       -1.61134967      -0.46821938       0.10809904     -32.25797741       5.58970026    -143.62056650     -32.25797741       5.58970026    -143.62056650
C        0.98020093      -0.84313676       0.04494787      11.27494103       3.78094976       2.79455625      11.27494103       3.78094976       2.79455625
H        0.19112953       0.11155599      -2.14587693       0.81504015       0.61132509       1.88608870       0.81504015       0.61132509       1.88608870
H       -0.43864910       2.61942650      -0.66243570       4.72924589      -2.71845634       0.81576003       4.72924589      -2.71845634       0.81576003
H        1.19012704       2.22645599       0.06440264       4.95385600       3.01752276      -2.48150998       4.95385600       3.01752276      -2.48150998
H        0.23169670       1.19581840       1.03498006       1.39893963       0.97647272      -0.71973242       1.39893963       0.97647272      -0.71973242
H       -1.47872313      -0.47236716       0.61627086      33.16606218       0.36597688     137.57713521      33.16606218       0.36597688     137.57713521
H       -2.10126391       0.78569746      -0.90260603      -1.43676203      -1.97789745      -1.20941799      -1.43676203      -1.97789745      -1.20941799
H       -1.10040909      -1.55599200      -1.10754383      -4.40986658      -3.43656540       2.09728686      -4.40986658      -3.43656540       2.09728686
H        0.19983654      -1.50609674       1.36990655       4.37607563       1.64508355      -1.60311659       4.37607563       1.64508355      -1.60311659
H        2.27135516      -0.85009835      -0.44869923      -7.15289119       0.77552753       2.96470992      -7.15289119       0.77552753       2.96470992
H        1.16406486      -1.71242086      -0.19745831       0.23380809      -8.18491472      -5.33112900       0.23380809      -8.18491472      -5.33112900
14
Properties=species:S:1:pos:R:3:forces:R:3:gap_forces:R:3 energy=-4277.665894552081 name=tbu gap_energy=-4277.665894552081 config_type=start_3 pbc="F F F"
C        0.16326015       0.00655721      -0.32923240      -2.15205444      -7.43013895      -2.67494552      -2.15205444      -7.43013895      -2.67494552
C        0.23184725       1.28968844       0.16520372      21.82710432     -15.70895734       5.66556699      21.82710432     -15.70895734       5.66556699
C       -1.67913000      -0.25412420      -0.19911219      10.10304109      -5.53219075       6.39878673      10.10304109      -5.53219075       6.39878673
C        1.43690855      -0.84039114       0.54268528      73.57995463      -8.08673058     -93.46903050      73.57995463      -8.08673058     -93.46903050
H        0.49830288      -0.25669638      -1.51706353      -2.57817541      -0.26258793      -2.50642561      -2.57817541      -0.26258793      -2.50642561
H       -0.08158004       1.95770569       0.05845774     -19.58118699      21.03929183      -2.71999341     -19.58118699      21.03929183      -2.71999341
H        1.14842041       1.34474003      -0.29761058       2.57746028       4.90998347       2.26224386       2.57746028       4.90998347       2.26224386
H        0.36887399       1.23804339       1.77489530      -2.99852024       4.73880356      -0.03696911      -2.99852024       4.73880356      -0.03696911
H       -1.50187432      -0.30983507       0.80998727      -4.34429922      -5.50601790       3.07219867      -4.34429922      -5.50601790       3.07219867
H       -1.74050095       0.62261020      -0.35774123      -6.13177044       6.81396195      -7.73988163      -6.13177044       6.81396195      -7.73988163
H       -2.22690685      -1.33220675      -0.63495153       1.67180342       5.30027862       1.39809705       1.67180342       5.30027862       1.39809705
H        1.04521538      -0.77652813       0.95277748     -74.36668635      11.09068680      84.52481489     -74.36668635      11.09068680      84.52481489
H        2.00625393      -0.55662277      -0.15577584       3.39543139      -4.03830409       8.32371063       3.39543139      -4.03830409       8.32371063
H        0.97781252      -2.30715073      -0.58878751      -1.00210203      -7.32807871      -2.49817304      -1.00210203      -7.32807871      -2.49817304
14
Properties=species:S:1:pos:R:3:forces:R:3:gap_forces:R:3 energy=-4290.1318566405735 name=tbu gap_energy=-4290.1318566405735 config_type=start_4 pbc="F F F"
C       -0.08447860       0.39132255      -0.82027477      11.69460016       3.33035221       7.20363826      11.69460016       3.33035221       7.20363826
C        0.62290535       1.27808900       0.31611128       6.98265820      -1.60743631      -5.74386616       6.98265820      -1.60743631      -5.74386616
C       -1.11431935      -0.20588570      -0.32427053     -14.66973585      -2.47821236       0.65009565     -14.66973585      -2.47821236       0.65009565
C        1.04856548      -0.76042593       0.78424439      -3.64158260      -1.37214038      -2.61202123      -3.64158260      -1.37214038      -2.61202123
H       -0.04313925      -0.01175475      -1.74345582       3.53117583       1.73502198       0.79137711       3.53117583       1.73502198       0.79137711
H       -0.09955690       1.87049293       0.41383273      -1.53166725       6.64972313      -2.42968602      -1.53166725       6.64972313      -2.42968602
H        1.90554393       1.58125092      -0.11375199      -8.30191284       0.11612697       2.79084335      -8.30191284       0.11612697       2.79084335
H        0.62497943       0.52651799       1.15907263       2.42933181     -13.15076411      -4.20609035       2.42933181     -13.15076411      -4.20609035
H       -1.81133016      -0.73347498       1.36206389       4.08821532       3.82036604      -1.79314980       4.08821532       3.82036604      -1.79314980
H       -2.07175696       0.69100299      -0.93816064       1.33693763       2.34075453       4.32582284       1.33693763       2.34075453       4.32582284
H       -1.90115744      -0.82333204      -0.63626724       2.14996554      -8.18804757      -1.74612259       2.14996554      -8.18804757      -1.74612259
H        1.15632884      -1.96614623       1.25196169      -0.53874353       5.55724838       0.61132815      -0.53874353       5.55724838       0.61132815
H        1.53770468      -0.23661255      -0.12927714      -2.47845851       1.03385081      -0.21826140      -2.47845851       1.03385081      -0.21826140
H        0.53473408      -1.87089078      -0.39712173      -1.05078391       2.21315668       2.37609218      -1.05078391       2.21315668       2.37609218
14
Properties=species:S:1:pos:R:3:forces:R:3:gap_forces:R:3 energy=-3854.246280308737 name=tbu gap_energy=-3854.246280308737 config_type=start_5 pbc="F F F"
C       -0.37464407      -0.02472583       0.06152560      14.81668361       6.27936723       1.70474765      14.81668361       6.27936723       1.70474765
C        0.61334922       1.17931794       0.98337487    3581.98608877   -1514.30746609     763.52628817    3581.98608877   -1514.30746609     763.52628817
C       -1.69821905      -0.25015569      -0.27977788      10.13657222     -12.56787541       5.03779813      10.13657222     -12.56787541       5.03779813
C        1.43512763      -1.41374437       0.61089929      11.86634890      -5.15381000      -9.42760189      11.86634890      -5.15381000      -9.42760189
H        0.10750920      -0.00295062      -1.23156998      -4.87572150       1.59275104      -0.62534646      -4.87572150       1.59275104      -0.62534646
H       -0.41479963       1.94360568      -0.50136047      -1.80813385       1.85019797      -0.11840145      -1.80813385       1.85019797      -0.11840145
H        1.49519486       1.77056345      -0.09337805       2.34114392       0.34941803       3.60619231       2.34114392       0.34941803       3.60619231
H        0.49706919       1.22841579       0.95835131   -3587.03588214    1512.07456529    -771.17339852   -3587.03588214    1512.07456529    -771.17339852
H       -1.49703426      -0.12255507       1.13926239      -3.90969604       0.02241673       5.12492612      -3.90969604       0.02241673       5.12492612
H       -2.09408531       0.37965311      -0.76120740      -6.83567453       6.52809685      -6.04841365      -6.83567453       6.52809685      -6.04841365
H       -1.59660296      -1.28592517      -0.31769875      -5.97542230       2.42718556      -1.91499874      -5.97542230       2.42718556      -1.91499874
H        0.73901891      -1.19155013       0.94442695      -8.20512388       5.90541603       6.05212821      -8.20512388       5.90541603       6.05212821
H        2.05566126      -1.01915364      -0.31853944      -4.21203204      -1.64328883       6.27581874      -4.21203204      -1.64328883       6.27581874
H        0.90495862      -2.24320953      -1.06576720       1.71084885      -3.35697440      -2.01973863       1.71084885      -3.35697440      -2.01973863
14
Properties=species:S:1:pos:R:3:forces:R:3:gap_forces:R:3 energy=-4263.970748053014 name=tbu gap_energy=-4263.970748053014 config_type=start_6 pbc="F F F"
C        0.05769407      -0.27203070      -0.08594324      21.98539415     -44.61881261       7.19465895      21.98539415     -44.61881261       7.19465895
C       -0.03933447       0.79684675      -0.11688511      66.47610802      66.73540326      12.46564926      66.47610802      66.73540326      12.46564926
C       -0.83307454       0.34155477      -0.30869645     -89.91187173     -25.65946118     -23.44072924     -89.91187173     -25.65946118     -23.44072924
C        0.77143122      -1.61570555       0.29491696      -1.06995316      -2.29882874     -19.95674107      -1.06995316      -2.29882874     -19.95674107
H        0.42329419       0.47770986      -1.39046258      -3.78899725      -0.45130065      -0.15738927      -3.78899725      -0.45130065      -0.15738927
H       -0.02227837       2.25361901       0.12376123      -3.89135583       2.66924518      -0.83129209      -3.89135583       2.66924518      -0.83129209
H        1.47698693       1.68882926      -0.21865688       4.51226482      -0.37048473      -0.40556107       4.51226482      -0.37048473      -0.40556107
H        0.18181189       1.73786817       1.93787950       0.60816535       2.06307204       5.28695448       0.60816535       2.06307204       5.28695448
H       -1.72590264      -0.36606886       0.83571475      -0.16512935      -0.47240472       5.30713981      -0.16512935      -0.47240472       5.30713981
H       -2.07013954       0.88606871      -0.95362402       0.22265900       4.48623928      -2.62557781       0.22265900       4.48623928      -2.62557781
H       -1.17379619      -0.93862358      -0.78466439       2.64988350      -3.20922935      -2.90149706       2.64988350      -3.20922935      -2.90149706
H        1.14268990      -1.12125732       0.75298840      -2.53028200      -3.71439178      13.44500975      -2.53028200      -3.71439178      13.44500975
H        2.04091697      -0.47872198      -0.26459162       4.52697050       4.04387711      -4.84145187       4.52697050       4.04387711      -4.84145187
H        0.65074543      -1.97770660      -0.61926639       0.37614399       0.79707691      11.46082723       0.37614399       0.79707691      11.46082723
14
Properties=species:S:1:pos:R:3:forces:R:3:gap_forces:R:3 energy=-4232.177372544152 name=tbu gap_energy=-4232.177372544152 config_type=start_7 pbc="F F F"
C       -0.00770272      -0.19197118      -0.33934648      18.75686705       8.80474727      -1.71089992      18.75686705       8.80474727      -1.71089992
C        0.63149301       0.75618476       0.55069305       1.84945178       0.24504698     -12.96825459       1.84945178       0.24504698     -12.96825459
C       -1.20238444      -0.24988749      -0.38184124      21.75227324      40.02284311     -25.48207315      21.75227324      40.02284311     -25.48207315
C        1.22655837      -0.64750183      -0.06365826    -328.16618668      21.08708939      96.57163643    -328.16618668      21.08708939      96.57163643
H        0.22217518       0.50838372      -1.61215289      -3.90421665      -1.77199062      -2.44852307      -3.90421665      -1.77199062      -2.44852307
H       -0.26856172       1.95580675       0.32591538       0.52175207      -3.09868720       1.66133207       0.52175207      -3.09868720       1.66133207
H        1.13083538       1.71175829      -0.35600594       3.95260611       0.01669837       3.35359777       3.95260611       0.01669837       3.35359777
H        0.40518118       0.81177784       1.54772396       6.68715815      -0.38520668       7.57768323       6.68715815      -0.38520668       7.57768323
H       -1.74192137       0.00854557       0.91671087       0.06819278      -4.25955835      -6.38577053       0.06819278      -4.25955835      -6.38577053
H       -2.57544171       0.37076923      -0.58870353       4.48211923      -1.86719670      -1.61999837       4.48211923      -1.86719670      -1.61999837
H       -1.69722311      -0.51412463      -0.17830061     -54.92300612     -37.73422717      27.81857288     -54.92300612     -37.73422717      27.81857288
H        0.35434113      -1.94246926       1.25069421      -5.25347287      -7.13651005      12.11826241      -5.25347287      -7.13651005      12.11826241
H        1.61629264      -0.67557428      -0.18040337     330.14564855     -17.51513448     -97.38741376     330.14564855     -17.51513448     -97.38741376
H        0.89420628      -1.58059735      -0.73398048       4.03081337       3.59208613      -1.09815139       4.03081337       3.59208613      -1.09815139
14
Properties=species:S:1:pos:R:3:forces:R:3:gap_forces:R:3 energy=-4291.008526968188 name=tbu gap_energy=-4291.008526968188 config_type=start_8 pbc="F F F"
C        0.10898661       0.06309904      -0.08006889     -12.92102428       3.52109688      -6.67088114     -12.92102428       3.52109688      -6.67088114
C        0.69256338       1.04061635       0.42185350       3.81848412       4.75846888      -3.76672800       3.81848412       4.75846888      -3.76672800
C       -1.22562505      -0.26700979      -0.29776793       3.43270545      -3.42975251      -2.02303277       3.43270545      -3.42975251      -2.02303277
C        0.82159313      -0.87944238       0.20100741       5.12839029      -9.57307105       8.30364923       5.12839029      -9.57307105       8.30364923
H        0.33532983      -0.01499658      -1.12260272      -8.83731743       4.64449260       6.13876566      -8.83731743       4.64449260       6.13876566
H       -0.03497403       2.52611218      -0.02415000      -0.33122702      -2.80089131       0.21401149      -0.33122702      -2.80089131       0.21401149
H        1.56845146       1.20487100      -0.19236353       0.64084082       0.81972628       4.13884223       0.64084082       0.81972628       4.13884223
H       -0.21481746       1.48552106       1.31513527       3.65174846       2.07580698       0.16175371       3.65174846       2.07580698       0.16175371
H       -1.59823140      -0.43263151       1.47300400      -5.33419005      -1.31580807       1.94116634      -5.33419005      -1.31580807       1.94116634
H       -2.31722457       0.44627080       0.05122232       1.83526058       3.59809919       1.35079001       1.83526058       3.59809919       1.35079001
H       -2.14057976      -1.43230941      -0.88176374       1.46764683      -0.59422975      -1.01473937       1.46764683      -0.59422975      -1.01473937
H        0.63861651      -1.11050238       1.26075982       0.43249413       5.29840267      -5.88903655       0.43249413       5.29840267      -5.88903655
H        2.24518301      -1.36778367      -0.75727858       6.87678395      -0.17772363      -0.35850139       6.87678395      -0.17772363      -0.35850139
H        0.95193369      -2.32692246      -0.71270385       0.13940416      -6.82461715      -2.52605946       0.13940416      -6.82461715      -2.52605946
14
Properties=species:S:1:pos:R:3:forces:R:3:gap_forces:R:3 energy=-4273.734662312063 name=tbu gap_energy=-4273.734662312063 config_type=start_9 pbc="F F F"
C       -0.33763950       0.32933199      -0.42880451       8.86622522      -4.98636300      -6.71014034       8.86622522      -4.98636300      -6.71014034
C        0.72453703       0.91682896      -0.03506885     -36.95120922     -28.68068986       4.31506271     -36.95120922     -28.68068986       4.31506271
C       -1.42098635      -0.08898420       0.01267929     -17.44146714       3.14272202     -15.32958876     -17.44146714       3.14272202     -15.32958876
C        0.75764933      -1.39668885       0.26657032       7.15397052       4.23681767      -1.21591386       7.15397052       4.23681767      -1.21591386
H        0.32609478       0.23710249      -2.07399330      -0.54447150       0.75323780      -2.53745589      -0.54447150       0.75323780      -2.53745589
H        0.15488032       1.88000197      -0.03338052       3.65069137       1.75345338      -1.64509978       3.65069137       1.75345338      -1.64509978
H        1.14342932       1.36970701       0.00052416      49.93792516      43.03878207       0.65279097      49.93792516      43.03878207       0.65279097
H       -0.35970900       1.30923347       1.29631298      -2.73440770      -3.43198934      -0.41515851      -2.73440770      -3.43198934      -0.41515851
H       -1.60044714      -0.32684178       0.67004082      -4.54214615      -5.01132266      28.26673654      -4.54214615      -5.01132266      28.26673654
H       -2.07967489       1.02497152      -0.38427465      -4.39953946      -1.26642195       0.19872709      -4.39953946      -1.26642195       0.19872709
H       -1.78125556      -0.76125108      -0.41671760       6.52581610      -1.49736967      -6.13200338       6.52581610      -1.49736967      -6.13200338
H        0.25593082      -1.13683439       1.40307945       0.39409421      -4.13052778      -4.60284071       0.39409421      -4.13052778      -4.60284071
H        2.22253301      -1.48070840      -0.03822144      -7.78612986      -0.68364999       1.14849047      -7.78612986      -0.68364999       1.14849047
H        0.63498171      -1.90462592      -0.84949098      -2.12935155      -3.23667870       4.00639344      -2.12935155      -3.23667870       4.00639344
14
Properties=species:S:1:pos:R:3:forces:R:3:gap_forces:R:3 energy=-4281.332146119795 name=tbu gap_energy=-4281.332146119795 config_type=start_10 pbc="F F F"
C       -0.10904992      -0.20150852      -0.19588631      27.02624392       1.01056146      -4.44877635      27.02624392       1.01056146      -4.44877635
C        1.32005600       1.48126362       0.43144279       5.63035816      26.22239143      42.77155916       5.63035816      26.22239143      42.77155916
C       -1.26930125      -0.03524048       0.10353842     -14.07321088       6.59517139       7.64783001     -14.07321088       6.59517139       7.64783001
C        0.97095169      -1.16975222       0.06977819     -11.03180607      -2.91989443       3.06580597     -11.03180607      -2.91989443       3.06580597
H        0.00703867       0.27606209      -1.44585399      -1.84045780      -2.23197551       1.84017335      -1.84045780      -2.23197551       1.84017335
H       -0.38155108       2.30523736       0.59573422       2.23360109       8.02758184       1.20226581       2.23360109       8.02758184       1.20226581
H        1.10280845       1.11714826      -0.05656925     -18.41017152     -34.42656385     -40.56736953     -18.41017152     -34.42656385     -40.56736953
H        0.28617055       0.79337700       1.32750985       0.28381519      -1.61823586      -5.70137722       0.28381519      -1.61823586      -5.70137722
H       -1.87797600      -0.64615992       1.44569406       2.47288127      -2.08822004      -1.28560727       2.47288127      -2.08822004      -1.28560727
H       -1.95696716       1.12374037      -0.22543644      -0.91384865      -2.51351313      -1.74493996      -0.91384865      -2.51351313      -1.74493996
H       -1.89289033      -1.56366406      -1.17159784       2.19735382       3.63509427       2.00091229       2.19735382       3.63509427       2.00091229
H        0.96677929      -1.43967580       1.51118898      -0.53113531       1.39434172      -3.67411525      -0.53113531       1.39434172      -3.67411525
H        1.87154455      -1.32127118      -0.16329013      10.14565105       2.85779378       0.00605703      10.14565105       2.85779378       0.00605703
H        0.60793316      -1.93040401      -0.67701822      -3.18927427      -3.94453308      -1.11241805      -3.18927427      -3.94453308      -1.11241805
14
Properties=species:S:1:pos:R:3:forces:R:3:gap_forces:R:3 energy=-4281.275054487518 name=tbu gap_energy=-4281.275054487518 config_type=start_11 pbc="F F F"
C        0.16338400      -0.07894721       0.17935353     -24.21308065      21.27437210      -4.66886699     -24.21308065      21.27437210      -4.66886699
C        0.54278866       1.26308371       0.33371096     -35.66883806      -3.22065125      25.34262472     -35.66883806      -3.22065125      25.34262472
C       -1.54333669      -0.23027342       0.13260193      11.00629116       6.45257697     -35.42488773      11.00629116       6.45257697     -35.42488773
C        0.63408296      -1.07663662       0.32480721      25.07703860     -29.24974119      -6.57233576      25.07703860     -29.24974119      -6.57233576
H       -0.35714684       0.42103416      -1.53875552       1.72417661      -0.88723292      -2.39396633       1.72417661      -0.88723292      -2.39396633
H       -0.39251668       2.14472803       0.26821241       2.65744402      -0.00582469      -0.88571474       2.65744402      -0.00582469      -0.88571474
H        1.11619438       1.49423591       0.07811947      40.84369452      15.35953699     -23.17727543      40.84369452      15.35953699     -23.17727543
H        0.81370615       1.51036435       1.30865870      -2.23912336       0.28900284       0.66259561      -2.23912336       0.28900284       0.66259561
H       -1.88231464      -0.39268854       0.74321286     -13.62488210      -7.23918259      30.50497315     -13.62488210      -7.23918259      30.50497315
H       -2.01994608       0.67658763      -0.44836568      -2.23408814      -3.55533183       1.86703020      -2.23408814      -3.55533183       1.86703020
H       -1.92183681      -1.26388695      -0.63628443       2.40908088       3.97711593       2.29277332       2.40908088       3.97711593       2.29277332
H        0.50788989      -0.68500163       1.11639951      -0.59973779      -3.49217999       8.39742255      -0.59973779      -3.49217999       8.39742255
H        2.00938488      -0.74932233       0.04195168      -4.70645575      -3.99976032      -0.09373816      -4.70645575      -3.99976032      -0.09373816
H        0.61200180      -1.79440056      -0.54055689      -0.43151993       4.29729996       4.14936560      -0.43151993       4.29729996       4.14936560
14
Properties=species:S:1:pos:R:3:forces:R:3:gap_forces:R:3 energy=-4263.20250708381 name=tbu gap_energy=-4263.20250708381 config_type=start_12 pbc="F F F"
C       -0.22413423      -0.26094065      -0.78988779      10.59702175      -1.85616224      -5.39569731      10.59702175      -1.85616224      -5.39569731
C        0.76573711       1.95607500       0.30659599       3.86391293     -12.01850822       3.15896886       3.86391293     -12.01850822       3.15896886
C       -1.49489126      -0.65392648      -0.29240545      70.07905164      99.52010434     -39.37769301      70.07905164      99.52010434     -39.37769301
C        1.49836356      -1.09503302      -0.34079411     -10.26388047       2.35873947      -2.20267273     -10.26388047       2.35873947      -2.20267273
H        0.52743454       0.71965349      -1.64854306      -1.35211792      -1.46083203      -0.58262730      -1.35211792      -1.46083203      -0.58262730
H       -0.29910736       1.63572377       0.44668147       0.98594315       4.00414295       1.36337290       0.98594315       4.00414295       1.36337290
H        1.77943409       1.09447560       0.28441789       1.10682461       6.50699067      -3.27272000       1.10682461       6.50699067      -3.27272000
H        0.85767995       1.11480458       1.50297560      -4.31598679       3.33650530       0.34096556      -4.31598679       3.33650530       0.34096556
H       -1.85658035      -0.06757564       0.65902697      -2.61942605       0.10184949       3.48311037      -2.61942605       0.10184949       3.48311037
H       -1.79038825       0.33923932      -1.08588196      -4.82140756       3.07746417      -2.97464505      -4.82140756       3.07746417      -2.97464505
H       -1.81148072      -1.04724679      -0.10159345     -69.49464673    -100.50816614      40.86718212     -69.49464673    -100.50816614      40.86718212