14
Properties=species:S:1:pos:R:3:forces:R:3:gap_forces:R:3 energy=-3476.486167878534 name=nbu_bent gap_energy=-3476.486167878534 config_type=start_0 pbc="F F F"
C       -2.02154816      -0.41211118       0.37233619       3.44277758      -0.66461907      -2.60199898       3.44277758      -0.66461907      -2.60199898
C        0.79027855      -0.70749111      -0.27511124    6248.04718328   -3892.21340184   -4950.45288545    6248.04718328   -3892.21340184   -4950.45288545
C        0.63496801      -0.61099458      -0.15232630   -6259.72488444    3886.98706604    4949.81824635   -6259.72488444    3886.98706604    4949.81824635
C        1.57628295       0.65638675       1.00503209       8.31095873      -4.54848014     -10.73732095       8.31095873      -4.54848014     -10.73732095
H       -0.04757023       0.97814119      -0.86562454      -4.78390837      -4.04727074       1.53643623      -4.78390837      -4.04727074       1.53643623
H       -0.41703676      -1.06490624       0.47943830       5.89025042       2.59526581      -3.04658632       5.89025042       2.59526581      -3.04658632
H       -0.90561191       0.00564927      -0.43595239      -5.14912468       2.89782282      -0.83501157      -5.14912468       2.89782282      -0.83501157
H       -0.59248651      -0.16656922      -2.75367206       0.71344081      -1.37171179      -2.99682913       0.71344081      -1.37171179      -2.99682913
H       -1.92371154      -1.31727523      -0.95863987      -6.07496022      -1.46181688      -0.62340654      -6.07496022      -1.46181688      -0.62340654
H        1.43461880      -0.03505553       1.34834702      -2.08401744      -8.68624390       5.13495384      -2.08401744      -8.68624390       5.13495384
H        1.79909864      -3.82295795      -1.86091972      -0.02016727       0.05962187       0.03075462      -0.02016727       0.05962187       0.03075462
H        2.29094959       0.03267273      -0.17728469       2.82649039       6.63130714      -3.64997223       2.82649039       6.63130714      -3.64997223
H        1.34508454       2.76894557      -0.31016401       3.88155370      -1.22295516       1.87161692       3.88155370      -1.22295516       1.87161692
H        1.72666240      -0.53212404       0.27970843       4.72440752      15.04541584      16.55200320       4.72440752      15.04541584      16.55200320
14
Properties=species:S:1:pos:R:3:forces:R:3:gap_forces:R:3 energy=-4248.501796647577 name=nbu_bent gap_energy=-4248.501796647577 config_type=start_1 pbc="F F F"
C       -1.58606253       1.84715740      -1.01739452       4.26937584      -7.43765371      10.81776919       4.26937584      -7.43765371      10.81776919
C       -1.01347245       0.66395255       0.08556830       0.81049045       8.53746191      -1.22175086       0.81049045       8.53746191      -1.22175086
C        0.92299459      -2.67144594      -1.79591698      -0.83147252       1.81547420       1.02946840      -0.83147252       1.81547420       1.02946840
C        1.67828333       0.75297993       1.33073272      -3.63040358      -1.62704210      -2.04594453      -3.63040358      -1.62704210      -2.04594453
H       -0.37328037       0.10323544       1.33589877       3.12183278       0.54727829       3.73451108       3.12183278       0.54727829       3.73451108
H       -1.99607803       1.08733065       0.86296879       7.08634235     -10.20593099     -15.85546318       7.08634235     -10.20593099     -15.85546318
H       -1.87343719       0.64316670      -2.06877914       1.39517156      -3.96827168      -2.45904305       1.39517156      -3.96827168      -2.45904305
H        0.61309344       1.21817748       0.13838568      -1.33425937       3.65668770       3.96353317      -1.33425937       3.65668770       3.96353317
H        0.04007418       0.06075476      -1.02239471      -2.34945834       8.65386760       0.08940982      -2.34945834       8.65386760       0.08940982
H        0.07846862      -0.78689315       0.64413564       1.33112213      -2.33853626       1.29769772       1.33112213      -2.33853626       1.29769772
H        0.21158348      -0.88274404      -0.97273135       1.48211957     -14.33197885     -12.39465982       1.48211957     -14.33197885     -12.39465982
H        4.76826679      -1.24501642       1.35821954      -0.03820440       0.02612516      -0.00863279      -0.03820440       0.02612516      -0.00863279
H       -2.06565546       1.74161461       1.62388173      -9.31425449      16.76850652      13.72904425      -9.31425449      16.76850652      13.72904425
H        2.59033798       1.11932038       0.01165862      -1.99840197      -0.09598781      -0.67593939      -1.99840197      -0.09598781      -0.67593939
14
Properties=species:S:1:pos:R:3:forces:R:3:gap_forces:R:3 energy=-4263.699454539977 name=nbu_bent gap_energy=-4263.699454539977 config_type=start_2 pbc="F F F"
C       -1.68414261      -0.12476812       1.10347389     -46.02128562      12.00870829     -14.64390747     -46.02128562      12.00870829     -14.64390747
C        0.37931540      -1.28583210      -1.22405995      -5.35576603       7.63479078       0.59652170      -5.35576603       7.63479078       0.59652170
C        0.51206768       0.98722971      -0.81916622      -3.00345275      -5.93047253      -3.47749233      -3.00345275      -5.93047253      -3.47749233
C       -0.71565456      -0.37697833       1.32896676      47.29154251     -11.54533945       6.71161714      47.29154251     -11.54533945       6.71161714
H       -2.94103750       1.25468461       0.11358243      -7.35324211      11.34805308       3.84990453      -7.35324211      11.34805308       3.84990453
H       -1.23803508       1.07465084      -0.19333425       9.14541475      -6.14398863      -1.30542675       9.14541475      -6.14398863      -1.30542675
H       -2.46112680       0.28568086      -0.12089194       4.61917954     -13.80651111      -2.86219223       4.61917954     -13.80651111      -2.86219223
H       -0.24545339      -1.13649944      -0.40930592      -0.91462124      11.31785213      10.72296960      -0.91462124      11.31785213      10.72296960
H       -0.82179547      -2.47801905      -1.92658290      -1.10549989      -2.93964532      -2.55949225      -1.10549989      -2.93964532      -2.55949225
H        1.24976951      -2.61591638      -0.39442195       3.05465594       2.01036699      -3.08459625       3.05465594       2.01036699      -3.08459625
H        2.21324892      -0.76752132      -2.14097948      -1.07987095      -2.34421264       2.32031689      -1.07987095      -2.34421264       2.32031689
H        1.49931065       0.11259391       1.31239798      -1.55435961      -2.67256386      -0.30337245      -1.55435961      -2.67256386      -0.30337245
H        0.65258599       1.08647191       0.35882372      -0.72923301      -0.32884790       0.31719147      -0.72923301      -0.32884790       0.31719147
H       -0.71187888      -0.51529042      -1.90586462       3.00653848       1.39181017       3.71795840       3.00653848       1.39181017       3.71795840
14
Properties=species:S:1:pos:R:3:forces:R:3:gap_forces:R:3 energy=-4263.3379898400335 name=nbu_bent gap_energy=-4263.3379898400335 config_type=start_3 pbc="F F F"
C       -2.32533601      -0.87978483      -0.46007125       4.32330476       1.64682104      -8.25991858       4.32330476       1.64682104      -8.25991858
C       -1.51849918      -0.52408187      -1.62211617      -1.73751791      -3.50158904      13.09797342      -1.73751791      -3.50158904      13.09797342
C       -1.02781942       0.36152409       1.59000019       2.11226362       2.25465340       6.39761771       2.11226362       2.25465340       6.39761771
C        1.74140161       2.49220397      -0.33198347      -0.03221783      -0.93141413      -0.38976956      -0.03221783      -0.93141413      -0.38976956
H       -0.00912524       1.62362782      -0.01530869      10.16221947     -16.13959872     -24.35034305      10.16221947     -16.13959872     -24.35034305
H       -0.73287669      -0.42379171       0.27331284      -8.73466181      -9.24651242     -13.83336422      -8.73466181      -9.24651242     -13.83336422
H       -1.63551849      -2.68241409      -1.23497102       1.17809373       2.93458785      -0.31213442       1.17809373       2.93458785      -0.31213442
H       -1.06062991       0.40585837      -2.33485536       4.07621266       3.18122569      10.58413976       4.07621266       3.18122569      10.58413976
H       -2.39774577      -2.40843548       0.38423095       0.89282757       0.87704972       0.48396821       0.89282757       0.87704972       0.48396821
H        0.86228605      -1.10897971       1.07350477       2.78875493       0.57053736      -0.43620999       2.78875493       0.57053736      -0.43620999
H        2.27356551      -0.74184217       0.14703605      -0.95030568       1.21264066       1.29039031      -0.95030568       1.21264066       1.29039031
H        3.60705320       0.28647728       0.77323424      -1.96771457      -1.68645357       0.90962075      -1.96771457      -1.68645357       0.90962075
H       -0.38870142       2.14958250       0.52719039     -10.88881431      18.26930890      15.35118864     -10.88881431      18.26930890      15.35118864
H        3.73716549       1.33300555      -1.47954055      -1.22244463       0.55874326      -0.53315898      -1.22244463       0.55874326      -0.53315898
14
Properties=species:S:1:pos:R:3:forces:R:3:gap_forces:R:3 energy=-4250.97669799052 name=nbu_bent gap_energy=-4250.97669799052 config_type=start_4 pbc="F F F"
C       -2.87184598       2.19768956       1.07023388       0.24744889       0.07907624      -1.66331063       0.24744889       0.07907624      -1.66331063
C       -1.47544427      -1.37056458       0.63375519      -0.96512555       1.49863577       0.05928772      -0.96512555       1.49863577       0.05928772
C        2.51096172      -0.98988490      -2.46904672      -0.13626072       0.00055812       0.29561675      -0.13626072       0.00055812       0.29561675
C        1.60267503       0.44239819       0.98682945      -5.11366311      -4.76194832      -0.46279916      -5.11366311      -4.76194832      -0.46279916
H       -1.35375507       2.02717574       3.27475369      -0.40195163       0.21910064       0.50350399      -0.40195163       0.21910064       0.50350399
H       -1.29322158       1.74947736       1.63773881       0.80711053      -0.55627927      -0.76949493       0.80711053      -0.55627927      -0.76949493
H       -2.30732432       2.30079986      -1.61585226      -0.45362340      -0.05843689       1.82407297      -0.45362340      -0.05843689       1.82407297
H        0.17071539      -1.33054169      -0.25934625      -1.24976972      -7.72816528      -9.17603337      -1.24976972      -7.72816528      -9.17603337
H       -2.58038531      -1.35117481      -0.26301085       4.49111329       0.51276372      -0.27395995       4.49111329       0.51276372      -0.27395995
H        0.53719821      -1.55330468       1.07475927       4.09095500      -1.11213943       2.30961995       4.09095500      -1.11213943       2.30961995
H        0.17097302      -0.59084302       0.41686173      -0.91021115      11.70721694       9.17261745      -0.91021115      11.70721694       9.17261745
H        3.81218172       0.77028358       0.96562137       3.62010566      -2.13121410       1.34534511       3.62010566      -2.13121410       1.34534511
H        1.86940409       1.55586946       0.03707606      -3.96688774       2.11691281      -3.87087024      -3.96688774       2.11691281      -3.87087024
H        2.40689196       1.49901774      -2.46640851      -0.05924035       0.21391903       0.70640434      -0.05924035       0.21391903       0.70640434
14
Properties=species:S:1:pos:R:3:forces:R:3:gap_forces:R:3 energy=-4244.168560370535 name=nbu_bent gap_energy=-4244.168560370535 config_type=start_5 pbc="F F F"
C       -0.43927854      -1.07477492      -0.22436007       7.90897401      11.31151381      -6.28215388       7.90897401      11.31151381      -6.28215388
C        0.37528338      -0.48722357      -2.21887585     -33.07440307     -39.26196019     -35.29621630     -33.07440307     -39.26196019     -35.29621630
C        1.81530390      -1.74027161      -0.03099880     -13.00221013       7.19063513      -5.93226233     -13.00221013       7.19063513      -5.93226233
C        0.12902155       1.62459336       1.12708765     -69.20358366       2.00778406     -11.58129860     -69.20358366       2.00778406     -11.58129860
H       -1.47192219       1.65752602       0.00315867      -3.32233439       5.65308639      -9.86743037      -3.32233439       5.65308639      -9.86743037
H       -1.70725079       0.51946396       0.61813755      -2.50461628      -5.80366556       3.71910002      -2.50461628      -5.80366556       3.71910002
H       -3.62042574      -0.38335507       0.40264161      -1.83443620      -1.39048102      -0.45834240      -1.83443620      -1.39048102      -0.45834240
H        0.16632134      -0.00623361      -1.69879002     -26.93788515      25.87566930      33.71735701     -26.93788515      25.87566930      33.71735701
H       -0.64829357      -1.63857942      -0.95901002      -1.97884206      -4.26590404       5.36285484      -1.97884206      -4.26590404       5.36285484
H        0.91997252      -1.49523258       1.99119040      -0.59540054      -3.23808930       1.07498234      -0.59540054      -3.23808930       1.07498234
H        0.96102081      -0.24474850      -1.91836597      62.85960840      12.10755484      14.88603599      62.85960840      12.10755484      14.88603599
H        1.43438489      -0.61958959       1.38833787       5.63673144      -6.20368633       0.10340232       5.63673144      -6.20368633       0.10340232
H       -0.44741898       0.75078073       0.52935887       9.64835583      -5.46300012       0.61939405       9.64835583      -5.46300012       0.61939405
H        0.76762378       1.60033303       1.22691932      66.40004180       1.48054302       9.93457731      66.40004180       1.48054302       9.93457731
14
Properties=species:S:1:pos:R:3:forces:R:3:gap_forces:R:3 energy=-4262.632043354117 name=nbu_bent gap_energy=-4262.632043354117 config_type=start_6 pbc="F F F"
C       -2.60077468      -0.35363802      -0.97536716       4.87616000       1.87576735      -0.35313216       4.87616000       1.87576735      -0.35313216
C       -0.30549215       0.35851332      -1.67615264      -4.28845718      -2.03529503       5.61996586      -4.28845718      -2.03529503       5.61996586
C       -0.05588025      -2.12155210       0.25876770      -0.39463858      -0.66445284       7.24662819      -0.39463858      -0.66445284       7.24662819
C        0.51782550      -2.54157406       1.71289043      -1.22156136       1.81386256      -7.08808309      -1.22156136       1.81386256      -7.08808309
H       -2.63352993      -0.42043284       0.79917677       6.34038799      -2.15191001      -0.41786421       6.34038799      -2.15191001      -0.41786421
H        0.08627672      -0.55345311       0.84805065      -4.42194890      -2.42498538      -2.50551602      -4.42194890      -2.42498538      -2.50551602
H       -1.61478558      -2.61021152      -0.78826987       6.81725364      -8.98924540       3.65303642       6.81725364      -8.98924540       3.65303642
H       -2.12550665      -1.75258990      -0.79963141      -4.14996747      10.40381286      -3.11091134      -4.14996747      10.40381286      -3.11091134
H        0.59731735      -1.01893299      -2.03412629       1.06779938       0.53095999      -1.94456328       1.06779938       0.53095999      -1.94456328
H        0.24049079       0.60931908       0.91960695       4.33594957       5.75933494      -5.68706863       4.33594957       5.75933494      -5.68706863
H        1.93171086      -3.33480019       0.65580744      -1.78723311      -0.22821766       0.88372909      -1.78723311      -0.22821766       0.88372909
H        3.24513542      -0.25447948       1.69286403      -1.51079840       1.30492615      -0.48551081      -1.51079840       1.30492615      -0.48551081
H        1.55730404       1.76593944       1.66652601       0.80865839      -2.63891963      -0.81569855       0.80865839      -2.63891963      -0.81569855
H        2.21336363       1.38406799      -0.80371151      -6.47160399      -2.55563790       5.00498853      -6.47160399      -2.55563790       5.00498853
14
Properties=species:S:1:pos:R:3:forces:R:3:gap_forces:R:3 energy=-4277.44871686455 name=nbu_bent gap_energy=-4277.44871686455 config_type=start_7 pbc="F F F"
C       -0.59641732       1.12314193       1.44024231      -9.68593938      -6.14598167      -9.51084671      -9.68593938      -6.14598167      -9.51084671
C        0.01027631      -0.21988764      -1.68781646       3.36078275      -2.21643342       8.12992290       3.36078275      -2.21643342       8.12992290
C        0.65013707      -1.10225615      -0.16310703      -1.75392030       5.45199992      -2.94430855      -1.75392030       5.45199992      -2.94430855
C        1.15530553      -0.78668696       1.29009291      -1.55589918      -1.42955528      -5.67711714      -1.55589918      -1.42955528      -5.67711714
H       -0.22128595       0.42720743      -0.25593790      -8.82584719      -0.64197192       5.65036250      -8.82584719      -0.64197192       5.65036250
H       -2.24475226       0.57816010       1.84625600      -0.12602667       1.12321301       0.83423299      -0.12602667       1.12321301       0.83423299
H       -2.76954272       1.40711979      -0.31464169       3.05696889      -0.44408693      -2.47561592       3.05696889      -0.44408693      -2.47561592
H        0.94005128       2.36027919      -1.10457166       2.04545212      -3.84505378       2.36756201       2.04545212      -3.84505378       2.36756201
H       -1.33342642      -1.26895847       1.88063386       2.03297241      -4.23611249      -2.29571809       2.03297241      -4.23611249      -2.29571809
H        0.63374154      -2.57796687       0.20654905      -2.96334344      -0.30014841       3.38338536      -2.96334344      -0.30014841       3.38338536
H        2.17191123      -2.02672614      -0.51715431       0.57968363       0.07836664      -0.63908735       0.57968363       0.07836664      -0.63908735
H        1.84949012       0.24341468       0.55977969       0.85479878      11.60360056       0.19513086       0.85479878      11.60360056       0.19513086
H       -0.06352881       1.66799190       1.86218608      14.18968813       3.01207137       3.44287033      14.18968813       3.01207137       3.44287033
H        3.01088961       2.45465461       1.20806406      -1.20937056      -2.00990759      -0.46077320      -1.20937056      -2.00990759      -0.46077320
14
Properties=species:S:1:pos:R:3:forces:R:3:gap_forces:R:3 energy=-4259.254221642668 name=nbu_bent gap_energy=-4259.254221642668 config_type=start_8 pbc="F F F"
C       -0.61645125       0.26097536       1.54802576       7.70000164       0.54282761      -5.13217997       7.70000164       0.54282761      -5.13217997
C        0.12970514      -0.95112196      -0.67679811      -9.15080100     -10.86037944     -17.51056536      -9.15080100     -10.86037944     -17.51056536
C        1.18859587      -0.73181434       0.06146691       6.94391328       3.73079748      13.17665985       6.94391328       3.73079748      13.17665985
C        2.92025555       2.06076856       1.16189128      -0.22601512       0.10059146       0.07604729      -0.22601512       0.10059146       0.07604729
H       -0.40441247       1.12882141       0.20999363      -3.27224066       3.23916914       1.84854281      -3.27224066       3.23916914       1.84854281
H       -3.12032390      -0.88761497      -0.33344377       2.74887622      -1.60973307      -0.90021653       2.74887622      -1.60973307      -0.90021653
H       -1.78702570      -1.70682478      -0.74443318      -2.77927407       0.47050380       3.59941590      -2.77927407       0.47050380       3.59941590
H       -1.40199848      -0.55535185      -2.80054601      -1.66916137       1.83976239      -5.71463879      -1.66916137       1.83976239      -5.71463879
H        0.24506001      -0.31984646      -0.23316529      -1.02897637      13.80299751       2.64568652      -1.02897637      13.80299751       2.64568652
H        0.51068065      -1.72721797       0.57539693      -1.74872790      -6.40400062       8.63384240      -1.74872790      -6.40400062       8.63384240
H        1.69347663      -1.70572607       0.20969619       9.70830631       7.29289467      -2.85029669       9.70830631       7.29289467      -2.85029669
H        0.64270221       0.14292987       1.24060745       2.33745956      -1.90048458       1.37349582       2.33745956      -1.90048458       1.37349582
H       -0.07551292       2.81723285      -1.09405902       0.22558808      -0.34732080      -0.44992274       0.22558808      -0.34732080      -0.44992274
H        2.95139303       0.72825897       0.22689675      -9.78894861      -9.89762557       1.20412948      -9.78894861      -9.89762557       1.20412948
14
Properties=species:S:1:pos:R:3:forces:R:3:gap_forces:R:3 energy=-4264.178364001783 name=nbu_bent gap_energy=-4264.178364001783 config_type=start_9 pbc="F F F"
C       -1.69107913      -0.90163666       0.48420296       1.88414204      -4.98439897      -1.60825710       1.88414204      -4.98439897      -1.60825710
C        0.11698554       0.72093198       1.71613448       5.66309016       0.32722864      -0.35133707       5.66309016       0.32722864      -0.35133707
C        0.24669052      -1.54341365       1.03864530     -11.61515587       5.01264724      -1.41733274     -11.61515587       5.01264724      -1.41733274
C        0.88877279       0.85520328       0.38543192       0.49320071       1.99762328       1.25839836       0.49320071       1.99762328       1.25839836
H       -1.83867490       0.94237398      -1.40244902       0.75508705       0.04872908      -2.47520917       0.75508705       0.04872908      -2.47520917
H       -2.03704716      -0.31486626       1.61171375       1.58044736       0.33047421       1.63378341       1.58044736       0.33047421       1.63378341
H       -3.40322526      -1.42102942       0.95947469       2.94028937       0.08467362      -0.08140580       2.94028937       0.08467362      -0.08140580
H        0.65613315       0.42544527      -2.93763824      -1.37651162      -2.20540666       2.64008725      -1.37651162      -2.20540666       2.64008725
H        0.19150057      -1.76485616      -1.10176584       0.77671503       0.47102700      -2.84084701       0.77671503       0.47102700      -2.84084701
H       -0.98524830       0.57323377       0.76363731       3.99325688      -3.34740283       2.25292917       3.99325688      -3.34740283       2.25292917
H        1.84639588      -1.73275233      -0.03486604       0.09118193       0.90794881       1.11347917       0.09118193       0.90794881       1.11347917
H        4.00526762      -0.59818550       1.16588399      19.34269483     -23.58958779      13.35238877      19.34269483     -23.58958779      13.35238877
H        2.86853472       1.23413026       0.15832524      -3.90618266       5.95563761      -2.55263932      -3.90618266       5.95563761      -2.55263932
H        3.34347012       0.01984601       0.75783140     -20.62225523      18.99080676     -10.92403791     -20.62225523      18.99080676     -10.92403791
14
Properties=species:S:1:pos:R:3:forces:R:3:gap_forces:R:3 energy=-4253.056437263788 name=nbu_bent gap_energy=-4253.056437263788 config_type=start_10 pbc="F F F"
C       -2.02428548      -1.12212420      -0.70340006      -3.97588165      -2.12349979      -7.78402097      -3.97588165      -2.12349979      -7.78402097
C        0.70941576       0.54269851      -1.65494677      -3.42840954       0.65773780       1.22790296      -3.42840954       0.65773780       1.22790296
C       -0.63054436      -1.11153284      -1.32677923       5.86782956       6.77217087      -1.69133410       5.86782956       6.77217087      -1.69133410
C        1.21195746      -0.18186398       0.90693415     -19.30259991      -2.20928378      25.62109597     -19.30259991      -2.20928378      25.62109597
H       -1.30560918       0.59464614      -0.28269008       3.09456002     -10.62315586      -4.35253405       3.09456002     -10.62315586      -4.35253405
H       -1.82170885      -3.04379630       1.17288373       1.03151571       3.91187283      -2.55785736       1.03151571       3.91187283      -2.55785736
H       -2.05116750       1.41092720       0.23608175      -3.32301965      12.23728363       3.55352045      -3.32301965      12.23728363       3.55352045
H        0.58045230      -0.96969074      -1.80618198      -5.49779726      -4.70361945       1.58045290      -5.49779726      -4.70361945       1.58045290
H       -1.45529538      -0.85738015      -0.24675369      10.43233848      -5.34968301       9.67935850      10.43233848      -5.34968301       9.67935850
H        0.98182090      -1.50257669       1.41891791      -2.28855611       3.35142069       0.13642556      -2.28855611       3.35142069       0.13642556
H        1.92322135      -1.05337427      -0.62122972      -5.43069789      -2.84952340      -8.25691957      -5.43069789      -2.84952340      -8.25691957
H        2.98905952      -0.63504525       0.07856152      15.27147851       1.32911229      -0.67744358      15.27147851       1.32911229      -0.67744358
H        1.65723939      -0.24435789       0.32624267       7.66091849       5.08000076     -15.36686944       7.66091849       5.08000076     -15.36686944
H        1.35561429       2.59314690       0.21958573      -0.11167875      -5.48083359      -1.11177728      -0.11167875      -5.48083359      -1.11177728
14
Properties=species:S:1:pos:R:3:forces:R:3:gap_forces:R:3 energy=-4201.299326667546 name=nbu_bent gap_energy=-4201.299326667546 config_type=start_11 pbc="F F F"
C       -0.28603866       0.24963802      -0.30873014      -2.76540649      -0.60963442      -0.80507482      -2.76540649      -0.60963442      -0.80507482
C       -1.55872644      -1.11776559      -1.36837416       9.23484121       4.57859908      -0.78902792       9.23484121       4.57859908      -0.78902792
C        0.88381901      -0.68325194       1.05621802       0.81829106       7.25664507      -3.30697080       0.81829106       7.25664507      -3.30697080
C        1.07999667       0.31351685       0.06291514     -83.35054183     328.14237923     319.42224601     -83.35054183     328.14237923     319.42224601
H       -0.47735445       2.10631168       0.22656938      -0.06768117       0.27622828       0.25575255      -0.06768117       0.27622828       0.25575255
H       -3.42890261      -0.56206728       2.07499923       0.04112149       0.00239271      -0.03082496       0.04112149       0.00239271      -0.03082496
H       -1.30747027       1.10331921      -1.23684492       0.47153535      -0.86265826      -0.45624273       0.47153535      -0.86265826      -0.45624273
H       -0.87563620      -0.57605910      -2.50510543      -2.00569281      -3.40730488       3.64067247      -2.00569281      -3.40730488       3.64067247
H       -0.27998005      -1.49254446      -1.47121020      -9.26465884      -3.22910514      -6.45450845      -9.26465884      -3.22910514      -6.45450845
H        0.20998125      -0.47993206       1.96444979       5.08976155      -1.42214025       6.40364253       5.08976155      -1.42214025       6.40364253
H        1.13948842       0.08797756      -0.15397292      87.68343835    -332.40309847    -317.16232608      87.68343835    -332.40309847    -317.16232608
H        2.77629479       0.15234988       3.05138958      -7.46164373       1.64729810      -4.75405606      -7.46164373       1.64729810      -4.75405606
H        1.96399697       2.71937543       1.92802392       0.97055203      -3.52574526       1.35771139       0.97055203      -3.52574526       1.35771139
H        1.89461335      -0.61154776      -0.63073158       0.60608383       3.55614422       2.67900690       0.60608383       3.55614422       2.67900690
14
Properties=species:S:1:pos:R:3:forces:R:3:gap_forces:R:3 energy=-4253.455143285992 name=nbu_bent gap_energy=-4253.455143285992 config_type=start_12 pbc="F F F"
C       -2.06555357       0.12387004       0.37390307       6.27237265      -4.24893945      -0.86357544       6.27237265      -4.24893945      -0.86357544
C       -1.35988602      -2.09708828      -0.50693730      -1.37179170       4.02275804       0.59961678      -1.37179170       4.02275804       0.59961678
C        1.84251795      -2.10903140       1.46244803      -1.48469709       1.83919388      -1.03705816      -1.48469709       1.83919388      -1.03705816
C        1.19178461       2.50136132       0.40116913      -2.38081830      -2.65067409       2.54997565      -2.38081830      -2.65067409       2.54997565
H       -2.89707196       2.13413496      -2.43881910      -2.03718959      -7.00965006       4.34998631      -2.03718959      -7.00965006       4.34998631
H       -2.07501783      -0.20588767       2.53559319       6.08324159      -2.23065962      -0.75043735       6.08324159      -2.23065962      -0.75043735
H       -3.56560410      -0.09357527      -1.07762925       2.75852740       6.89336229      -3.96441465       2.75852740       6.89336229      -3.96441465
H       -0.23674016      -0.24698812       0.93801716      -6.03655009      -2.35710595       6.06183857      -6.03655009      -2.35710595       6.06183857
H        0.75824594      -0.69512498      -0.94358634       7.38135499      -2.16135560      -8.64736349       7.38135499      -2.16135560      -8.64736349
H        0.50421892      -1.19940016       2.11664016      -6.64652766       3.12922607       0.73433836      -6.64652766       3.12922607       0.73433836