
                                 *****************
                                 * O   R   C   A *
                                 *****************

           --- An Ab Initio, DFT and Semiempirical electronic structure package ---

                  #######################################################
                  #                        -***-                        #
                  #          Department of theory and spectroscopy      #
                  #               Directorship: Frank Neese             #
                  #        Max Planck Institute fuer Kohlenforschung    #
                  #                Kaiser Wilhelm Platz 1               #
                  #                 D-45470 Muelheim/Ruhr               #
                  #                      Germany                        #
                  #                                                     #
                  #                  All rights reserved                #
                  #                        -***-                        #
                  #######################################################


                         Program Version 4.2.1 -  RELEASE  -


 With contributions from (in alphabetic order):
   Daniel Aravena         : Magnetic Suceptibility
   Michael Atanasov       : Ab Initio Ligand Field Theory (pilot matlab implementation)
   Alexander A. Auer      : GIAO ZORA, VPT2
   Ute Becker             : Parallelization
   Giovanni Bistoni       : ED, misc. LED, open-shell LED, HFLD
   Martin Brehm           : Molecular dynamics
   Dmytro Bykov           : SCF Hessian
   Vijay G. Chilkuri      : MRCI spin determinant printing, contributions to CSF-ICE
   Dipayan Datta          : RHF DLPNO-CCSD density
   Achintya Kumar Dutta   : EOM-CC, STEOM-CC
   Dmitry Ganyushin       : Spin-Orbit,Spin-Spin,Magnetic field MRCI
   Miquel Garcia          : C-PCM Hessian, Gaussian charge scheme
   Yang Guo               : DLPNO-NEVPT2, CIM, IAO-localization
   Andreas Hansen         : Spin unrestricted coupled pair/coupled cluster methods
   Benjamin Helmich-Paris : CASSCF linear response (MC-RPA)
   Lee Huntington         : MR-EOM, pCC
   Robert Izsak           : Overlap fitted RIJCOSX, COSX-SCS-MP3, EOM
   Christian Kollmar      : KDIIS, OOCD, Brueckner-CCSD(T), CCSD density
   Simone Kossmann        : Meta GGA functionals, TD-DFT gradient, OOMP2, MP2 Hessian
   Martin Krupicka        : AUTO-CI
   Lucas Lang             : DCDCAS
   Dagmar Lenk            : GEPOL surface, SMD
   Dimitrios Liakos       : Extrapolation schemes; Compound Job, initial MDCI parallelization
   Dimitrios Manganas     : Further ROCIS development; embedding schemes
   Dimitrios Pantazis     : SARC Basis sets
   Taras Petrenko         : DFT Hessian,TD-DFT gradient, ASA, ECA, R-Raman, ABS, FL, XAS/XES, NRVS
   Peter Pinski           : DLPNO-MP2, DLPNO-MP2 Gradient
   Christoph Reimann      : Effective Core Potentials
   Marius Retegan         : Local ZFS, SOC
   Christoph Riplinger    : Optimizer, TS searches, QM/MM, DLPNO-CCSD(T), (RO)-DLPNO pert. Triples
   Tobias Risthaus        : Range-separated hybrids, TD-DFT gradient, RPA, STAB
   Michael Roemelt        : Original ROCIS implementation
   Masaaki Saitow         : Open-shell DLPNO-CCSD energy and density
   Barbara Sandhoefer     : DKH picture change effects
   Avijit Sen             : IP-ROCIS
   Kantharuban Sivalingam : CASSCF convergence, NEVPT2, FIC-MRCI
   Bernardo de Souza      : ESD, SOC TD-DFT
   Georgi Stoychev        : AutoAux, RI-MP2 NMR
   Willem Van den Heuvel  : Paramagnetic NMR
   Boris Wezisla          : Elementary symmetry handling
   Frank Wennmohs         : Technical directorship


 We gratefully acknowledge several colleagues who have allowed us to
 interface, adapt or use parts of their codes:
   Stefan Grimme, W. Hujo, H. Kruse,             : VdW corrections, initial TS optimization,
                  C. Bannwarth                     DFT functionals, gCP, sTDA/sTD-DF
   Ed Valeev, F. Pavosevic, A. Kumar             : LibInt (2-el integral package), F12 methods
   Garnet Chan, S. Sharma, J. Yang, R. Olivares  : DMRG
   Ulf Ekstrom                                   : XCFun DFT Library
   Mihaly Kallay                                 : mrcc  (arbitrary order and MRCC methods)
   Andreas Klamt, Michael Diedenhofen            : otool_cosmo (COSMO solvation model)
   Jiri Pittner, Ondrej Demel                    : Mk-CCSD
   Frank Weinhold                                : gennbo (NPA and NBO analysis)
   Christopher J. Cramer and Donald G. Truhlar   : smd solvation model
   Lars Goerigk                                  : TD-DFT with DH, B97 family of functionals
   V. Asgeirsson, H. Jonsson                     : NEB implementation
   FAccTs GmbH                                   : IRC, NEB, NEB-TS, Multilevel, MM, QM/MM, CI optimization
   S Lehtola, MJT Oliveira, MAL Marques          : LibXC Library


 Your calculation uses the libint2 library for the computation of 2-el integrals
 For citations please refer to: http://libint.valeyev.net

 Your ORCA version has been built with support for libXC version: 4.2.3
 For citations please refer to: https://tddft.org/programs/libxc/

 This ORCA versions uses:
   CBLAS   interface :  Fast vector & matrix operations
   LAPACKE interface :  Fast linear algebra routines
   SCALAPACK package :  Parallel linear algebra routines


Your calculation utilizes the atom-pairwise dispersion correction
with the Becke-Johnson damping scheme (D3BJ)
Cite in your paper:
S.Grimme, S.Ehrlich, L.Goerigk, J Comput Chem, (2011), 32, 1456–1465 
S.Grimme, J.Antony, S.Ehrlich and H.Krieg, J.Chem.Phys., 132, (2010), 154104 
   

----- Orbital basis set information -----
Your calculation utilizes the basis: def2-SV(P)
   F. Weigend and R. Ahlrichs, Phys. Chem. Chem. Phys. 7, 3297 (2005).

----- AuxJ basis set information -----
Your calculation utilizes the auxiliary basis: def2/J
   F. Weigend, Phys. Chem. Chem. Phys. 8, 1057 (2006).

================================================================================
                                        WARNINGS
                       Please study these warnings very carefully!
================================================================================


WARNING: Geometry Optimization
  ===> : Switching off AutoStart
         For restart on a previous wavefunction, please use MOREAD

INFO   : the flag for use of LIBINT has been found!

================================================================================
                                       INPUT FILE
================================================================================
NAME = orca6.inp
|  1> ! UKS B3LYP def2-SV(P) def2/J D3BJ Opt
|  2> %scf Convergence VeryTight
|  3> SmearTemp 2000
|  4> maxiter 500
|  5> end
|  6> *xyz 0 1
|  7> C 2.509158 -0.452194 -0.089631
|  8> C 1.845379 0.882044 -0.164154
|  9> C 0.497443 0.971391 0.445398
| 10> C -0.355152 -0.256562 0.326054
| 11> C -1.803675 0.204575 0.190969
| 12> C -2.658531 -0.989203 -0.151256
| 13> H 3.296684 -0.468544 -0.884132
| 14> H 1.852416 -1.316628 -0.251305
| 15> H 3.055186 -0.549204 0.877972
| 16> H 1.803868 1.229673 -1.221881
| 17> H 2.516749 1.611079 0.358135
| 18> H 0.580685 1.252894 1.515258
| 19> H -0.039555 1.825981 -0.039886
| 20> H -0.135242 -0.868638 -0.560244
| 21> H -0.298278 -0.809829 1.282528
| 22> H -1.905735 1.0161 -0.558891
| 23> H -2.172033 0.635244 1.153564
| 24> H -3.049356 -1.427579 0.794554
| 25> H -3.496182 -0.729942 -0.811688
| 26> H -2.043828 -1.760657 -0.634084
| 27> *
| 28> 
| 29>                          ****END OF INPUT****
================================================================================

                       *****************************
                       * Geometry Optimization Run *
                       *****************************

Geometry optimization settings:
Update method            Update   .... BFGS
Choice of coordinates    CoordSys .... Z-matrix Internals
Initial Hessian          InHess   .... Almoef's Model

Convergence Tolerances:
Energy Change            TolE     ....  5.0000e-06 Eh
Max. Gradient            TolMAXG  ....  3.0000e-04 Eh/bohr
RMS Gradient             TolRMSG  ....  1.0000e-04 Eh/bohr
Max. Displacement        TolMAXD  ....  4.0000e-03 bohr
RMS Displacement         TolRMSD  ....  2.0000e-03 bohr
Strict Convergence                ....  False
------------------------------------------------------------------------------
                        ORCA OPTIMIZATION COORDINATE SETUP
------------------------------------------------------------------------------

The optimization will be done in new redundant internal coordinates
Making redundant internal coordinates   ...  (new redundants) done
Evaluating the initial hessian          ...  (Almloef) done
Evaluating the coordinates              ...  done
Calculating the B-matrix                .... done
Calculating the G-matrix                .... done
Diagonalizing the G-matrix              .... done
Small eigenvalue found = 1.314e-02
The first mode is                       ....   46
The number of degrees of freedom        ....   54

    -----------------------------------------------------------------
                    Redundant Internal Coordinates


    -----------------------------------------------------------------
         Definition                    Initial Value    Approx d2E/dq
    -----------------------------------------------------------------
      1. B(C   1,C   0)                  1.4921         0.429391   
      2. B(C   2,C   1)                  1.4820         0.445534   
      3. B(C   3,C   2)                  1.4997         0.417596   
      4. B(C   4,C   3)                  1.5261         0.378905   
      5. B(C   5,C   4)                  1.5076         0.405545   
      6. B(H   6,C   0)                  1.1188         0.323957   
      7. B(H   7,C   0)                  1.0976         0.350203   
      8. B(H   8,C   0)                  1.1153         0.328183   
      9. B(H   9,C   1)                  1.1142         0.329515   
     10. B(H  10,C   1)                  1.1203         0.322197   
     11. B(H  11,C   2)                  1.1094         0.335327   
     12. B(H  12,C   2)                  1.1199         0.322633   
     13. B(H  13,C   3)                  1.0993         0.347970   
     14. B(H  14,C   3)                  1.1064         0.339011   
     15. B(H  15,C   4)                  1.1096         0.335046   
     16. B(H  16,C   4)                  1.1170         0.326063   
     17. B(H  17,C   5)                  1.1133         0.330539   
     18. B(H  18,C   5)                  1.0977         0.349998   
     19. B(H  19,C   5)                  1.0982         0.349367   
     20. A(H   7,C   0,H   8)          110.6244         0.285401   
     21. A(C   1,C   0,H   7)          115.5129         0.330327   
     22. A(C   1,C   0,H   6)          106.9024         0.326109   
     23. A(H   6,C   0,H   7)          107.7624         0.284826   
     24. A(H   6,C   0,H   8)          105.6772         0.281968   
     25. A(C   1,C   0,H   8)          109.8109         0.326805   
     26. A(C   2,C   1,H  10)          108.3052         0.327803   
     27. A(C   0,C   1,H  10)          106.9794         0.325817   
     28. A(C   2,C   1,H   9)          109.7406         0.329020   
     29. A(C   0,C   1,H   9)          110.0592         0.327023   
     30. A(H   9,C   1,H  10)          105.1819         0.281907   
     31. A(C   0,C   1,C   2)          115.9747         0.383653   
     32. A(H  11,C   2,H  12)          105.0837         0.282731   
     33. A(C   1,C   2,C   3)          115.7840         0.381801   
     34. A(C   3,C   2,H  11)          109.0970         0.326465   
     35. A(C   1,C   2,H  11)          110.1015         0.329972   
     36. A(C   1,C   2,H  12)          107.6916         0.327876   
     37. A(C   3,C   2,H  12)          108.5261         0.324400   
     38. A(C   2,C   3,C   4)          107.4118         0.371260   
     39. A(H  13,C   3,H  14)          114.0953         0.286563   
     40. A(C   4,C   3,H  14)          106.0455         0.321872   
     41. A(C   2,C   3,H  14)          108.1453         0.327054   
     42. A(C   4,C   3,H  13)          106.6628         0.323251   
     43. A(C   2,C   3,H  13)          113.9741         0.328463   
     44. A(H  15,C   4,H  16)          105.6670         0.283159   
     45. A(C   5,C   4,H  16)          108.2951         0.323406   
     46. A(C   3,C   4,H  16)          110.6840         0.319828   
     47. A(C   5,C   4,H  15)          111.9343         0.324852   
     48. A(C   3,C   4,H  15)          111.5983         0.321253   
     49. A(C   3,C   4,C   5)          108.6032         0.369396   
     50. A(C   4,C   5,H  17)          108.5414         0.324130   
     51. A(H  18,C   5,H  19)          109.1780         0.288175   
     52. A(H  17,C   5,H  19)          107.0607         0.285613   
     53. A(C   4,C   5,H  19)          109.7938         0.327097   
     54. A(H  17,C   5,H  18)          109.6475         0.285693   
     55. A(C   4,C   5,H  18)          112.4715         0.327194   
     56. D(H   9,C   1,C   0,H   8)    148.4100         0.014576   
     57. D(H  10,C   1,C   0,H   7)    160.5730         0.014576   
     58. D(H   9,C   1,C   0,H   7)    -85.6615         0.014576   
     59. D(H  10,C   1,C   0,H   8)     34.6445         0.014576   
     60. D(H   9,C   1,C   0,H   6)     34.2272         0.014576   
     61. D(C   2,C   1,C   0,H   8)    -86.2894         0.014576   
     62. D(C   2,C   1,C   0,H   7)     39.6392         0.014576   
     63. D(C   2,C   1,C   0,H   6)    159.5278         0.014576   
     64. D(H  10,C   1,C   0,H   6)    -79.5383         0.014576   
     65. D(H  11,C   2,C   1,H   9)   -144.8879         0.015681   
     66. D(C   3,C   2,C   1,H  10)   -154.8837         0.015681   
     67. D(C   3,C   2,C   1,C   0)    -34.6635         0.015681   
     68. D(H  11,C   2,C   1,C   0)     89.6490         0.015681   
     69. D(H  11,C   2,C   1,H  10)    -30.5712         0.015681   
     70. D(H  12,C   2,C   1,H  10)     83.4833         0.015681   
     71. D(H  12,C   2,C   1,H   9)    -30.8334         0.015681   
     72. D(H  12,C   2,C   1,C   0)   -156.2965         0.015681   
     73. D(C   3,C   2,C   1,H   9)     90.7996         0.015681   
     74. D(H  14,C   3,C   2,H  11)    -25.1984         0.013801   
     75. D(H  14,C   3,C   2,C   1)     99.6332         0.013801   
     76. D(H  13,C   3,C   2,H  12)     92.8004         0.013801   
     77. D(H  13,C   3,C   2,H  11)   -153.2171         0.013801   
     78. D(H  13,C   3,C   2,C   1)    -28.3856         0.013801   
     79. D(C   4,C   3,C   2,H  11)     88.8564         0.013801   
     80. D(C   4,C   3,C   2,H  12)    -25.1260         0.013801   
     81. D(H  14,C   3,C   2,H  12)   -139.1808         0.013801   
     82. D(C   4,C   3,C   2,C   1)   -146.3121         0.013801   
     83. D(H  15,C   4,C   3,C   2)     47.1889         0.011446   
     84. D(C   5,C   4,C   3,H  14)    -73.4963         0.011446   
     85. D(C   5,C   4,C   3,H  13)     48.4759         0.011446   
     86. D(C   5,C   4,C   3,C   2)    171.0484         0.011446   
     87. D(H  16,C   4,C   3,H  14)     45.2624         0.011446   
     88. D(H  16,C   4,C   3,H  13)    167.2346         0.011446   
     89. D(H  16,C   4,C   3,C   2)    -70.1930         0.011446   
     90. D(H  15,C   4,C   3,H  14)    162.6442         0.011446   
     91. D(H  15,C   4,C   3,H  13)    -75.3836         0.011446   
     92. D(H  19,C   5,C   4,H  16)   -144.5735         0.013037   
     93. D(H  19,C   5,C   4,H  15)     99.3381         0.013037   
     94. D(H  19,C   5,C   4,C   3)    -24.3206         0.013037   
     95. D(H  18,C   5,C   4,H  16)     93.6447         0.013037   
     96. D(H  18,C   5,C   4,H  15)    -22.4437         0.013037   
     97. D(H  18,C   5,C   4,C   3)   -146.1024         0.013037   
     98. D(H  17,C   5,C   4,H  16)    -27.8562         0.013037   
     99. D(H  17,C   5,C   4,H  15)   -143.9446         0.013037   
    100. D(H  17,C   5,C   4,C   3)     92.3966         0.013037   
    -----------------------------------------------------------------

Number of atoms                         .... 20
Number of degrees of freedom            .... 100

Time needed for optimization step       :     3.40 sec

         *************************************************************
         *                GEOMETRY OPTIMIZATION CYCLE   1            *
         *************************************************************
---------------------------------
CARTESIAN COORDINATES (ANGSTROEM)
---------------------------------
  C      2.509158   -0.452194   -0.089631
  C      1.845379    0.882044   -0.164154
  C      0.497443    0.971391    0.445398
  C     -0.355152   -0.256562    0.326054
  C     -1.803675    0.204575    0.190969
  C     -2.658531   -0.989203   -0.151256
  H      3.296684   -0.468544   -0.884132
  H      1.852416   -1.316628   -0.251305
  H      3.055186   -0.549204    0.877972
  H      1.803868    1.229673   -1.221881
  H      2.516749    1.611079    0.358135
  H      0.580685    1.252894    1.515258
  H     -0.039555    1.825981   -0.039886
  H     -0.135242   -0.868638   -0.560244
  H     -0.298278   -0.809829    1.282528
  H     -1.905735    1.016100   -0.558891
  H     -2.172033    0.635244    1.153564
  H     -3.049356   -1.427579    0.794554
  H     -3.496182   -0.729942   -0.811688
  H     -2.043828   -1.760657   -0.634084

----------------------------
CARTESIAN COORDINATES (A.U.)
----------------------------
  NO LB      ZA    FRAG     MASS         X           Y           Z
   0 C     6.0000    0    12.011    4.741621   -0.854523   -0.169378
   1 C     6.0000    0    12.011    3.487261    1.666822   -0.310206
   2 C     6.0000    0    12.011    0.940031    1.835663    0.841680
   3 C     6.0000    0    12.011   -0.671140   -0.484832    0.616153
   4 C     6.0000    0    12.011   -3.408452    0.386591    0.360879
   5 C     6.0000    0    12.011   -5.023896   -1.869323   -0.285832
   6 H     1.0000    0     1.008    6.229830   -0.885420   -1.670767
   7 H     1.0000    0     1.008    3.500559   -2.488066   -0.474898
   8 H     1.0000    0     1.008    5.773465   -1.037845    1.659127
   9 H     1.0000    0     1.008    3.408817    2.323745   -2.309020
  10 H     1.0000    0     1.008    4.755966    3.044498    0.676777
  11 H     1.0000    0     1.008    1.097336    2.367627    2.863423
  12 H     1.0000    0     1.008   -0.074748    3.450604   -0.075374
  13 H     1.0000    0     1.008   -0.255570   -1.641488   -1.058708
  14 H     1.0000    0     1.008   -0.563664   -1.530355    2.423627
  15 H     1.0000    0     1.008   -3.601317    1.920151   -1.056151
  16 H     1.0000    0     1.008   -4.104548    1.200437    2.179920
  17 H     1.0000    0     1.008   -5.762448   -2.697733    1.501489
  18 H     1.0000    0     1.008   -6.606826   -1.379390   -1.533868
  19 H     1.0000    0     1.008   -3.862275   -3.327160   -1.198245

--------------------------------
INTERNAL COORDINATES (ANGSTROEM)
--------------------------------
 C      0   0   0     0.000000000000     0.00000000     0.00000000
 C      1   0   0     1.492094929625     0.00000000     0.00000000
 C      2   1   0     1.482048577884   115.97466215     0.00000000
 C      3   2   1     1.499676563320   115.78400622   325.33651880
 C      4   3   2     1.526143561898   107.41178827   213.68794130
 C      5   4   3     1.507648050655   108.60324200   171.04836559
 H      1   2   3     1.118792367768   106.90241522   159.52783504
 H      1   2   3     1.097585840468   115.51285832    39.63915874
 H      1   2   3     1.115263682944   109.81091537   273.71063903
 H      2   1   3     1.114161339884   110.05916578   234.69933886
 H      2   1   3     1.120274746500   106.97944849   120.93386025
 H      3   2   1     1.109402356755   110.10150855    89.64903865
 H      3   2   1     1.119906907185   107.69156902   203.70354747
 H      4   3   2     1.099327786732   113.97413464   331.61440985
 H      4   3   2     1.106427375764   108.14526231    99.63317382
 H      5   4   3     1.109630158578   111.59828840    47.18886788
 H      5   4   3     1.117028440887   110.68403248   289.80704176
 H      6   5   4     1.113316780661   108.54140841    92.39664609
 H      6   5   4     1.097745822377   112.47154957   213.89756475
 H      6   5   4     1.098236736733   109.79379379   335.67935915

---------------------------
INTERNAL COORDINATES (A.U.)
---------------------------
 C      0   0   0     0.000000000000     0.00000000     0.00000000
 C      1   0   0     2.819650782805     0.00000000     0.00000000
 C      2   1   0     2.800665929369   115.97466215     0.00000000
 C      3   2   1     2.833977994134   115.78400622   325.33651880
 C      4   3   2     2.883993373034   107.41178827   213.68794130
 C      5   4   3     2.849041922079   108.60324200   171.04836559
 H      1   2   3     2.114211175804   106.90241522   159.52783504
 H      1   2   3     2.074136646954   115.51285832    39.63915874
 H      1   2   3     2.107542927872   109.81091537   273.71063903
 H      2   1   3     2.105459801383   110.05916578   234.69933886
 H      2   1   3     2.117012465633   106.97944849   120.93386025
 H      3   2   1     2.096466626593   110.10150855    89.64903865
 H      3   2   1     2.116317350066   107.69156902   203.70354747
 H      4   3   2     2.077428448332   113.97413464   331.61440985
 H      4   3   2     2.090844727268   108.14526231    99.63317382
 H      5   4   3     2.096897109651   111.59828840    47.18886788
 H      5   4   3     2.110877837077   110.68403248   289.80704176
 H      6   5   4     2.103863815748   108.54140841    92.39664609
 H      6   5   4     2.074438968949   112.47154957   213.89756475
 H      6   5   4     2.075366662636   109.79379379   335.67935915

---------------------
BASIS SET INFORMATION
---------------------
There are 2 groups of distinct atoms

 Group   1 Type C   : 7s4p1d contracted to 3s2p1d pattern {511/31/1}
 Group   2 Type H   : 4s contracted to 2s pattern {31}

Atom   0C    basis set group =>   1
Atom   1C    basis set group =>   1
Atom   2C    basis set group =>   1
Atom   3C    basis set group =>   1
Atom   4C    basis set group =>   1
Atom   5C    basis set group =>   1
Atom   6H    basis set group =>   2
Atom   7H    basis set group =>   2
Atom   8H    basis set group =>   2
Atom   9H    basis set group =>   2
Atom  10H    basis set group =>   2
Atom  11H    basis set group =>   2
Atom  12H    basis set group =>   2
Atom  13H    basis set group =>   2
Atom  14H    basis set group =>   2
Atom  15H    basis set group =>   2
Atom  16H    basis set group =>   2
Atom  17H    basis set group =>   2
Atom  18H    basis set group =>   2
Atom  19H    basis set group =>   2
---------------------------------
AUXILIARY/J BASIS SET INFORMATION
---------------------------------
There are 2 groups of distinct atoms

 Group   1 Type C   : 12s5p4d2f1g contracted to 6s4p3d1f1g pattern {711111/2111/211/2/1}
 Group   2 Type H   : 5s2p1d contracted to 3s1p1d pattern {311/2/1}

Atom   0C    basis set group =>   1
Atom   1C    basis set group =>   1
Atom   2C    basis set group =>   1
Atom   3C    basis set group =>   1
Atom   4C    basis set group =>   1
Atom   5C    basis set group =>   1
Atom   6H    basis set group =>   2
Atom   7H    basis set group =>   2
Atom   8H    basis set group =>   2
Atom   9H    basis set group =>   2
Atom  10H    basis set group =>   2
Atom  11H    basis set group =>   2
Atom  12H    basis set group =>   2
Atom  13H    basis set group =>   2
Atom  14H    basis set group =>   2
Atom  15H    basis set group =>   2
Atom  16H    basis set group =>   2
Atom  17H    basis set group =>   2
Atom  18H    basis set group =>   2
Atom  19H    basis set group =>   2
------------------------------------------------------------------------------
                           ORCA GTO INTEGRAL CALCULATION
------------------------------------------------------------------------------

                         BASIS SET STATISTICS AND STARTUP INFO

 # of primitive gaussian shells          ...  128
 # of primitive gaussian functions       ...  200
 # of contracted shells                  ...   64
 # of contracted basis functions         ...  112
 Highest angular momentum                ...    2
 Maximum contraction depth               ...    5
 Integral package used                   ... LIBINT
 Integral threshhold            Thresh   ...  1.000e-12
 Primitive cut-off              TCut     ...  1.000e-14


------------------------------ INTEGRAL EVALUATION ----------------------------


 * One electron integrals 
 Pre-screening matrix                    ... done
 Shell pair data                         ... done (   0.001 sec)

-------------------------------------------------------------------------------
                                 ORCA SCF
-------------------------------------------------------------------------------

------------
SCF SETTINGS
------------
Hamiltonian:
 Density Functional     Method          .... DFT(GTOs)
 Exchange Functional    Exchange        .... B88
   X-Alpha parameter    XAlpha          ....  0.666667
   Becke's b parameter  XBeta           ....  0.004200
 Correlation Functional Correlation     .... LYP
 LDA part of GGA corr.  LDAOpt          .... VWN-5
 Gradients option       PostSCFGGA      .... off
 Hybrid DFT is turned on
   Fraction HF Exchange ScalHFX         ....  0.200000
   Scaling of DF-GGA-X  ScalDFX         ....  0.720000
   Scaling of DF-GGA-C  ScalDFC         ....  0.810000
   Scaling of DF-LDA-C  ScalLDAC        ....  1.000000
   Perturbative correction              ....  0.000000
   Density functional embedding theory  .... OFF
   NL short-range parameter             ....  4.800000


General Settings:
 Integral files         IntName         .... orca6
 Hartree-Fock type      HFTyp           .... UHF
 Total Charge           Charge          ....    0
 Multiplicity           Mult            ....    1
 Number of Electrons    NEL             ....   50
 Basis Dimension        Dim             ....  112
 Nuclear Repulsion      ENuc            ....    252.4058240802 Eh

Convergence Acceleration:
 DIIS                   CNVDIIS         .... on
   Start iteration      DIISMaxIt       ....    12
   Startup error        DIISStart       ....  0.200000
   # of expansion vecs  DIISMaxEq       ....     5
   Bias factor          DIISBfac        ....   1.050
   Max. coefficient     DIISMaxC        ....  10.000
 Newton-Raphson         CNVNR           .... off
 SOSCF                  CNVSOSCF        .... off
 Level Shifting         CNVShift        .... on
   Level shift para.    LevelShift      ....    0.2500
   Turn off err/grad.   ShiftErr        ....    0.0010
 Zerner damping         CNVZerner       .... off
 Static damping         CNVDamp         .... on
   Fraction old density DampFac         ....    0.7000
   Max. Damping (<1)    DampMax         ....    0.9800
   Min. Damping (>=0)   DampMin         ....    0.0000
   Turn off err/grad.   DampErr         ....    0.1000
 Fernandez-Rico         CNVRico         .... off

SCF Procedure:
 Maximum # iterations   MaxIter         ....   500
 SCF integral mode      SCFMode         .... Direct
   Integral package                     .... LIBINT
 Reset frequency        DirectResetFreq ....    20
 Integral Threshold     Thresh          ....  1.000e-12 Eh
 Primitive CutOff       TCut            ....  1.000e-14 Eh

Convergence Tolerance:
 Convergence Check Mode ConvCheckMode   .... Total+1el-Energy
 Convergence forced     ConvForced      .... 0
 Energy Change          TolE            ....  1.000e-09 Eh
 1-El. energy change                    ....  1.000e-06 Eh
 DIIS Error             TolErr          ....  1.000e-08


Diagonalization of the overlap matrix:
Smallest eigenvalue                        ... 1.305e-03
Time for diagonalization                   ...    0.002 sec
Threshold for overlap eigenvalues          ... 1.000e-08
Number of eigenvalues below threshold      ... 0
Time for construction of square roots      ...    5.194 sec
Total time needed                          ...    5.196 sec

-------------------
DFT GRID GENERATION
-------------------

General Integration Accuracy     IntAcc      ...  4.340
Radial Grid Type                 RadialGrid  ... Gauss-Chebyshev
Angular Grid (max. acc.)         AngularGrid ... Lebedev-110
Angular grid pruning method      GridPruning ... 3 (G Style)
Weight generation scheme         WeightScheme... Becke
Basis function cutoff            BFCut       ...    1.0000e-12
Integration weight cutoff        WCut        ...    1.0000e-14
Grids for H and He will be reduced by one unit

# of grid points (after initial pruning)     ...  21052 (   0.0 sec)
# of grid points (after weights+screening)   ...  19306 (   0.0 sec)
nearest neighbour list constructed           ...    0.0 sec
Grid point re-assignment to atoms done       ...    0.0 sec
Grid point division into batches done        ...    0.0 sec
Reduced shell lists constructed in    0.4 sec

Total number of grid points                  ...    19306
Total number of batches                      ...      311
Average number of points per batch           ...       62
Average number of grid points per atom       ...      965
Average number of shells per batch           ...    51.00 (79.69%)
Average number of basis functions per batch  ...    88.16 (78.72%)
Average number of large shells per batch     ...    42.22 (82.78%)
Average number of large basis fcns per batch ...    72.78 (82.55%)
Maximum spatial batch extension              ...  21.22, 25.60, 20.64 au
Average spatial batch extension              ...   3.46,  3.72,  3.65 au

Time for grid setup =    5.059 sec

------------------------------
INITIAL GUESS: MODEL POTENTIAL
------------------------------
Loading Hartree-Fock densities                     ... done
Calculating cut-offs                               ... done
Setting up the integral package                    ... done
Initializing the effective Hamiltonian             ... done
Starting the Coulomb interaction                   ... done (   0.1 sec)
Reading the grid                                   ... done
Mapping shells                                     ... done
Starting the XC term evaluation                    ... done (   0.2 sec)
  promolecular density results
     # of electrons  =     49.996365188
     EX              =    -35.025531804
     EC              =     -1.578466262
     EX+EC           =    -36.603998066
Transforming the Hamiltonian                       ... done (   0.0 sec)
Diagonalizing the Hamiltonian                      ... done (   0.0 sec)
Back transforming the eigenvectors                 ... done (   0.0 sec)
Now organizing SCF variables                       ... done
                      ------------------
                      INITIAL GUESS DONE (   5.4 sec)
                      ------------------
--------------
SCF ITERATIONS
--------------
ITER       Energy         Delta-E        Max-DP      RMS-DP      [F,P]     Damp
               ***  Starting incremental Fock matrix formation  ***
  0   -236.4162460998   0.000000000000 0.04283953  0.00185780  0.1772698 0.7000
  1   -236.5358073239  -0.119561224019 0.02643335  0.00132332  0.0914053 0.7000
                               ***Turning on DIIS***
  2   -236.5829989084  -0.047191584506 0.03680600  0.00216741  0.0342333 0.0000
  3   -236.6469818796  -0.063982971239 0.01741666  0.00089966  0.0502087 0.0000
  4   -236.6681655488  -0.021183669196 0.00353166  0.00027110  0.0115669 0.0000
  5   -236.6692189655  -0.001053416747 0.00125578  0.00009618  0.0021739 0.0000
  6   -236.6692807423  -0.000061776712 0.00062908  0.00004977  0.0008520 0.0000
  7   -236.6692858080  -0.000005065714 0.00021252  0.00000549  0.0003999 0.0000
  8   -236.6692862444  -0.000000436419 0.00003950  0.00000140  0.0000567 0.0000
  9   -236.6692862614  -0.000000016969 0.00001606  0.00000049  0.0000251 0.0000
 10   -236.6692862638  -0.000000002472 0.00000358  0.00000016  0.0000066 0.0000
 11   -236.6692862641  -0.000000000299 0.00000101  0.00000006  0.0000018 0.0000
 12   -236.6692862641  -0.000000000020 0.00000044  0.00000001  0.0000007 0.0000
 13   -236.6692862641   0.000000000021 0.00000013  0.00000000  0.0000002 0.0000
                 **** Energy Check signals convergence ****

 Fermi smearing  (ALPHA): E(HOMO(Eh)) = -0.292680 MUE = -0.120578 gap=   9.366 eV
 Fermi smearing   (BETA): E(HOMO(Eh)) = -0.292680 MUE = -0.120578 gap=   9.366 eV

N_FOD(alpha) =  0.000000
 N_FOD(beta) =  0.000000
       N_FOD =  0.000000

               *****************************************************
               *                     SUCCESS                       *
               *           SCF CONVERGED AFTER  14 CYCLES          *
               *****************************************************

Setting up the final grid:

General Integration Accuracy     IntAcc      ...  4.670
Radial Grid Type                 RadialGrid  ... Gauss-Chebyshev
Angular Grid (max. acc.)         AngularGrid ... Lebedev-302
Angular grid pruning method      GridPruning ... 3 (G Style)
Weight generation scheme         WeightScheme... Becke
Basis function cutoff            BFCut       ...    1.0000e-12
Integration weight cutoff        WCut        ...    1.0000e-14
Grids for H and He will be reduced by one unit

# of grid points (after initial pruning)     ...  84788 (   0.0 sec)
# of grid points (after weights+screening)   ...  76419 (   0.2 sec)
nearest neighbour list constructed           ...    0.0 sec
Grid point re-assignment to atoms done       ...    0.0 sec
Grid point division into batches done        ...    0.2 sec
Reduced shell lists constructed in    0.6 sec

Total number of grid points                  ...    76419
Total number of batches                      ...     1206
Average number of points per batch           ...       63
Average number of grid points per atom       ...     3821
Average number of shells per batch           ...    47.57 (74.33%)
Average number of basis functions per batch  ...    81.85 (73.08%)
Average number of large shells per batch     ...    38.75 (81.46%)
Average number of large basis fcns per batch ...    66.47 (81.21%)
Maximum spatial batch extension              ...  20.05, 19.27, 19.64 au
Average spatial batch extension              ...   2.29,  2.41,  2.39 au

Final grid set up in    1.5 sec
Final integration                            ... done (   7.7 sec)
Change in XC energy                          ...     0.000214173
Integrated number of electrons               ...    50.000086146
Previous integrated no of electrons          ...    50.001437100

----------------
TOTAL SCF ENERGY
----------------

Total Energy       :         -236.66907209 Eh           -6440.09286 eV

Components:
Nuclear Repulsion  :          252.40582408 Eh            6868.31165 eV
Electronic Energy  :         -489.07489617 Eh          -13308.40451 eV
One Electron Energy:         -816.59506081 Eh          -22220.68128 eV
Two Electron Energy:          327.52016463 Eh            8912.27677 eV

Virial components:
Potential Energy   :         -471.01335983 Eh          -12816.92512 eV
Kinetic Energy     :          234.34428774 Eh            6376.83226 eV
Virial Ratio       :            2.00992038


DFT components:
N(Alpha)           :       25.000043073225 electrons
N(Beta)            :       25.000043073225 electrons
N(Total)           :       50.000086146450 electrons
E(X)               :      -28.536083256766 Eh       
E(C)               :       -1.873250672372 Eh       
E(XC)              :      -30.409333929138 Eh       
DFET-embed. en.    :        0.000000000000 Eh       

---------------
SCF CONVERGENCE
---------------

  Last Energy change         ...   -1.5888e-11  Tolerance :   1.0000e-09
  Last MAX-Density change    ...    3.0862e-08  Tolerance :   1.0000e-08
  Last RMS-Density change    ...    1.0114e-09  Tolerance :   1.0000e-09
  Last DIIS Error            ...    6.0239e-08  Tolerance :   1.0000e-08

             **** THE GBW FILE WAS UPDATED (orca6.gbw) ****
             **** DENSITY FILE WAS UPDATED (orca6.scfp) ****
             **** ENERGY FILE WAS UPDATED (orca6.en.tmp) ****
             **** THE GBW FILE WAS UPDATED (orca6.gbw) ****
             **** DENSITY FILE WAS UPDATED (orca6.scfp) ****
----------------
ORBITAL ENERGIES
----------------
                 SPIN UP ORBITALS
  NO   OCC          E(Eh)            E(eV) 
   0   1.0000     -10.166929      -276.6562 
   1   1.0000     -10.165321      -276.6125 
   2   1.0000     -10.165066      -276.6055 
   3   1.0000     -10.161856      -276.5182 
   4   1.0000     -10.160981      -276.4943 
   5   1.0000     -10.159511      -276.4544 
   6   1.0000      -0.806799       -21.9541 
   7   1.0000      -0.761193       -20.7131 
   8   1.0000      -0.695148       -18.9159 
   9   1.0000      -0.633331       -17.2338 
  10   1.0000      -0.575441       -15.6586 
  11   1.0000      -0.543513       -14.7897 
  12   1.0000      -0.481835       -13.1114 
  13   1.0000      -0.446141       -12.1401 
  14   1.0000      -0.443218       -12.0606 
  15   1.0000      -0.423215       -11.5163 
  16   1.0000      -0.395988       -10.7754 
  17   1.0000      -0.385987       -10.5032 
  18   1.0000      -0.366232        -9.9657 
  19   1.0000      -0.353392        -9.6163 
  20   1.0000      -0.336344        -9.1524 
  21   1.0000      -0.323181        -8.7942 
  22   1.0000      -0.319441        -8.6924 
  23   1.0000      -0.308876        -8.4049 
  24   1.0000      -0.292680        -7.9642 
  25   0.0000       0.051524         1.4021 
  26   0.0000       0.068207         1.8560 
  27   0.0000       0.080118         2.1801 
  28   0.0000       0.082023         2.2319 
  29   0.0000       0.103107         2.8057 
  30   0.0000       0.116680         3.1750 
  31   0.0000       0.122450         3.3320 
  32   0.0000       0.135319         3.6822 
  33   0.0000       0.155105         4.2206 
  34   0.0000       0.161092         4.3835 
  35   0.0000       0.166912         4.5419 
  36   0.0000       0.184162         5.0113 
  37   0.0000       0.190861         5.1936 
  38   0.0000       0.196710         5.3528 
  39   0.0000       0.219375         5.9695 
  40   0.0000       0.255815         6.9611 
  41   0.0000       0.262380         7.1397 
  42   0.0000       0.294427         8.0118 
  43   0.0000       0.303527         8.2594 
  44   0.0000       0.414747        11.2858 
  45   0.0000       0.438887        11.9427 
  46   0.0000       0.439681        11.9643 
  47   0.0000       0.444165        12.0864 
  48   0.0000       0.480498        13.0750 
  49   0.0000       0.492684        13.4066 
  50   0.0000       0.514905        14.0113 
  51   0.0000       0.546161        14.8618 
  52   0.0000       0.563216        15.3259 
  53   0.0000       0.586558        15.9610 
  54   0.0000       0.619119        16.8471 
  55   0.0000       0.647500        17.6194 
  56   0.0000       0.653732        17.7890 
  57   0.0000       0.669124        18.2078 
  58   0.0000       0.679509        18.4904 
  59   0.0000       0.687565        18.7096 
  60   0.0000       0.691455        18.8154 
  61   0.0000       0.695373        18.9221 
  62   0.0000       0.703494        19.1430 
  63   0.0000       0.709509        19.3067 
  64   0.0000       0.711590        19.3634 
  65   0.0000       0.716979        19.5100 
  66   0.0000       0.719737        19.5850 
  67   0.0000       0.724474        19.7139 
  68   0.0000       0.736290        20.0355 
  69   0.0000       0.743736        20.2381 
  70   0.0000       0.753031        20.4910 
  71   0.0000       0.760423        20.6922 
  72   0.0000       0.763941        20.7879 
  73   0.0000       0.777372        21.1534 
  74   0.0000       0.783214        21.3123 
  75   0.0000       0.859202        23.3801 
  76   0.0000       0.929366        25.2893 
  77   0.0000       0.972763        26.4702 
  78   0.0000       1.002840        27.2887 
  79   0.0000       1.041014        28.3274 
  80   0.0000       1.130215        30.7547 
  81   0.0000       1.160739        31.5853 
  82   0.0000       1.397038        38.0153 
  83   0.0000       1.413455        38.4621 
  84   0.0000       1.555326        42.3226 
  85   0.0000       1.638135        44.5759 
  86   0.0000       1.739407        47.3317 
  87   0.0000       1.774436        48.2849 
  88   0.0000       1.824011        49.6339 
  89   0.0000       1.870049        50.8866 
  90   0.0000       1.912739        52.0483 
  91   0.0000       1.930353        52.5276 
  92   0.0000       1.953396        53.1546 
  93   0.0000       1.966561        53.5128 
  94   0.0000       1.994665        54.2776 
  95   0.0000       2.034865        55.3715 
  96   0.0000       2.076933        56.5162 
  97   0.0000       2.108501        57.3752 
  98   0.0000       2.126253        57.8583 
  99   0.0000       2.152332        58.5679 
 100   0.0000       2.205744        60.0214 
 101   0.0000       2.262114        61.5552 
 102   0.0000       2.296965        62.5036 
 103   0.0000       2.302573        62.6562 
 104   0.0000       2.339623        63.6644 
 105   0.0000       2.407983        65.5246 
 106   0.0000       2.433640        66.2227 
 107   0.0000       2.514187        68.4145 
 108   0.0000       2.584381        70.3246 
 109   0.0000       2.648584        72.0716 
 110   0.0000       2.760238        75.1099 
 111   0.0000       2.819074        76.7109 

                 SPIN DOWN ORBITALS
  NO   OCC          E(Eh)            E(eV) 
   0   1.0000     -10.166929      -276.6562 
   1   1.0000     -10.165321      -276.6125 
   2   1.0000     -10.165066      -276.6055 
   3   1.0000     -10.161856      -276.5182 
   4   1.0000     -10.160981      -276.4943 
   5   1.0000     -10.159511      -276.4544 
   6   1.0000      -0.806799       -21.9541 
   7   1.0000      -0.761193       -20.7131 
   8   1.0000      -0.695148       -18.9159 
   9   1.0000      -0.633331       -17.2338 
  10   1.0000      -0.575441       -15.6586 
  11   1.0000      -0.543513       -14.7897 
  12   1.0000      -0.481835       -13.1114 
  13   1.0000      -0.446141       -12.1401 
  14   1.0000      -0.443218       -12.0606 
  15   1.0000      -0.423215       -11.5163 
  16   1.0000      -0.395988       -10.7754 
  17   1.0000      -0.385987       -10.5032 
  18   1.0000      -0.366232        -9.9657 
  19   1.0000      -0.353392        -9.6163 
  20   1.0000      -0.336344        -9.1524 
  21   1.0000      -0.323181        -8.7942 
  22   1.0000      -0.319441        -8.6924 
  23   1.0000      -0.308876        -8.4049 
  24   1.0000      -0.292680        -7.9642 
  25   0.0000       0.051524         1.4021 
  26   0.0000       0.068207         1.8560 
  27   0.0000       0.080118         2.1801 
  28   0.0000       0.082023         2.2319 
  29   0.0000       0.103107         2.8057 
  30   0.0000       0.116680         3.1750 
  31   0.0000       0.122450         3.3320 
  32   0.0000       0.135319         3.6822 
  33   0.0000       0.155105         4.2206 
  34   0.0000       0.161092         4.3835 
  35   0.0000       0.166912         4.5419 
  36   0.0000       0.184162         5.0113 
  37   0.0000       0.190861         5.1936 
  38   0.0000       0.196710         5.3528 
  39   0.0000       0.219375         5.9695 
  40   0.0000       0.255815         6.9611 
  41   0.0000       0.262380         7.1397 
  42   0.0000       0.294427         8.0118 
  43   0.0000       0.303527         8.2594 
  44   0.0000       0.414747        11.2858 
  45   0.0000       0.438887        11.9427 
  46   0.0000       0.439681        11.9643 
  47   0.0000       0.444165        12.0864 
  48   0.0000       0.480498        13.0750 
  49   0.0000       0.492684        13.4066 
  50   0.0000       0.514905        14.0113 
  51   0.0000       0.546161        14.8618 
  52   0.0000       0.563216        15.3259 
  53   0.0000       0.586558        15.9610 
  54   0.0000       0.619119        16.8471 
  55   0.0000       0.647500        17.6194 
  56   0.0000       0.653732        17.7890 
  57   0.0000       0.669124        18.2078 
  58   0.0000       0.679509        18.4904 
  59   0.0000       0.687565        18.7096 
  60   0.0000       0.691455        18.8154 
  61   0.0000       0.695373        18.9221 
  62   0.0000       0.703494        19.1430 
  63   0.0000       0.709509        19.3067 
  64   0.0000       0.711590        19.3634 
  65   0.0000       0.716979        19.5100 
  66   0.0000       0.719737        19.5850 
  67   0.0000       0.724474        19.7139 
  68   0.0000       0.736290        20.0355 
  69   0.0000       0.743736        20.2381 
  70   0.0000       0.753031        20.4910 
  71   0.0000       0.760423        20.6922 
  72   0.0000       0.763941        20.7879 
  73   0.0000       0.777372        21.1534 
  74   0.0000       0.783214        21.3123 
  75   0.0000       0.859202        23.3801 
  76   0.0000       0.929366        25.2893 
  77   0.0000       0.972763        26.4702 
  78   0.0000       1.002840        27.2887 
  79   0.0000       1.041014        28.3274 
  80   0.0000       1.130215        30.7547 
  81   0.0000       1.160739        31.5853 
  82   0.0000       1.397038        38.0153 
  83   0.0000       1.413455        38.4621 
  84   0.0000       1.555326        42.3226 
  85   0.0000       1.638135        44.5759 
  86   0.0000       1.739407        47.3317 
  87   0.0000       1.774436        48.2849 
  88   0.0000       1.824011        49.6339 
  89   0.0000       1.870049        50.8866 
  90   0.0000       1.912739        52.0483 
  91   0.0000       1.930353        52.5276 
  92   0.0000       1.953396        53.1546 
  93   0.0000       1.966561        53.5128 
  94   0.0000       1.994665        54.2776 
  95   0.0000       2.034865        55.3715 
  96   0.0000       2.076933        56.5162 
  97   0.0000       2.108501        57.3752 
  98   0.0000       2.126253        57.8583 
  99   0.0000       2.152332        58.5679 
 100   0.0000       2.205744        60.0214 
 101   0.0000       2.262114        61.5552 
 102   0.0000       2.296965        62.5036 
 103   0.0000       2.302573        62.6562 
 104   0.0000       2.339623        63.6644 
 105   0.0000       2.407983        65.5246 
 106   0.0000       2.433640        66.2227 
 107   0.0000       2.514187        68.4145 
 108   0.0000       2.584381        70.3246 
 109   0.0000       2.648584        72.0716 
 110   0.0000       2.760238        75.1099 
 111   0.0000       2.819074        76.7109 

                    ********************************
                    * MULLIKEN POPULATION ANALYSIS *
                    ********************************

------------------------------------------
FOD BASED MULLIKEN REDUCED ORBITAL CHARGES
------------------------------------------
  0 C s       :    -0.000000  s :    -0.000000
      pz      :     0.000000  p :     0.000000
      px      :     0.000000
      py      :     0.000000
      dz2     :     0.000000  d :     0.000000
      dxz     :     0.000000
      dyz     :     0.000000
      dx2y2   :     0.000000
      dxy     :     0.000000
  1 C s       :    -0.000000  s :    -0.000000
      pz      :     0.000000  p :     0.000000
      px      :     0.000000
      py      :     0.000000
      dz2     :     0.000000  d :     0.000000
      dxz     :     0.000000
      dyz     :     0.000000
      dx2y2   :     0.000000
      dxy     :     0.000000
  2 C s       :    -0.000000  s :    -0.000000
      pz      :     0.000000  p :     0.000000
      px      :     0.000000
      py      :     0.000000
      dz2     :     0.000000  d :     0.000000
      dxz     :     0.000000
      dyz     :     0.000000
      dx2y2   :     0.000000
      dxy     :     0.000000
  3 C s       :    -0.000000  s :    -0.000000
      pz      :     0.000000  p :     0.000000
      px      :     0.000000
      py      :     0.000000
      dz2     :     0.000000  d :     0.000000
      dxz     :     0.000000
      dyz     :     0.000000
      dx2y2   :     0.000000
      dxy     :     0.000000
  4 C s       :    -0.000000  s :    -0.000000
      pz      :     0.000000  p :     0.000000
      px      :     0.000000
      py      :     0.000000
      dz2     :     0.000000  d :     0.000000
      dxz     :     0.000000
      dyz     :     0.000000
      dx2y2   :     0.000000
      dxy     :     0.000000
  5 C s       :    -0.000000  s :    -0.000000
      pz      :     0.000000  p :     0.000000
      px      :     0.000000
      py      :     0.000000
      dz2     :     0.000000  d :     0.000000
      dxz     :     0.000000
      dyz     :     0.000000
      dx2y2   :     0.000000
      dxy     :     0.000000
  6 H s       :     0.000000  s :     0.000000
  7 H s       :     0.000000  s :     0.000000
  8 H s       :     0.000000  s :     0.000000
  9 H s       :     0.000000  s :     0.000000
 10 H s       :     0.000000  s :     0.000000
 11 H s       :     0.000000  s :     0.000000
 12 H s       :     0.000000  s :     0.000000
 13 H s       :     0.000000  s :     0.000000
 14 H s       :     0.000000  s :     0.000000
 15 H s       :     0.000000  s :     0.000000
 16 H s       :     0.000000  s :     0.000000
 17 H s       :     0.000000  s :     0.000000
 18 H s       :     0.000000  s :     0.000000
 19 H s       :     0.000000  s :     0.000000


                     *******************************
                     * LOEWDIN POPULATION ANALYSIS *
                     *******************************

-------------------------------------------
LOEWDIN ATOMIC CHARGES AND SPIN POPULATIONS
-------------------------------------------
   0 C :   -0.321138    0.000000
   1 C :   -0.221776    0.000000
   2 C :   -0.213483    0.000000
   3 C :   -0.216930    0.000000
   4 C :   -0.220448    0.000000
   5 C :   -0.321672    0.000000
   6 H :    0.111452    0.000000
   7 H :    0.111172    0.000000
   8 H :    0.108741    0.000000
   9 H :    0.102993    0.000000
  10 H :    0.108460    0.000000
  11 H :    0.105694    0.000000
  12 H :    0.104731    0.000000
  13 H :    0.109336    0.000000
  14 H :    0.116021    0.000000
  15 H :    0.102136    0.000000
  16 H :    0.105578    0.000000
  17 H :    0.110671    0.000000
  18 H :    0.111008    0.000000
  19 H :    0.107454    0.000000

----------------------------------------------------
LOEWDIN REDUCED ORBITAL CHARGES AND SPIN POPULATIONS
----------------------------------------------------
CHARGE
  0 C s       :     2.945170  s :     2.945170
      pz      :     1.110172  p :     3.299422
      px      :     1.097313
      py      :     1.091937
      dz2     :     0.014244  d :     0.076547
      dxz     :     0.021518
      dyz     :     0.006338
      dx2y2   :     0.013289
      dxy     :     0.021157
  1 C s       :     2.893229  s :     2.893229
      pz      :     1.086664  p :     3.228632
      px      :     1.069245
      py      :     1.072723
      dz2     :     0.023136  d :     0.099915
      dxz     :     0.015529
      dyz     :     0.015308
      dx2y2   :     0.019392
      dxy     :     0.026549
  2 C s       :     2.895437  s :     2.895437
      pz      :     1.087711  p :     3.219581
      px      :     1.063056
      py      :     1.068814
      dz2     :     0.024139  d :     0.098464
      dxz     :     0.013544
      dyz     :     0.014009
      dx2y2   :     0.020434
      dxy     :     0.026338
  3 C s       :     2.906744  s :     2.906744
      pz      :     1.083168  p :     3.216690
      px      :     1.051529
      py      :     1.081993
      dz2     :     0.017394  d :     0.093496
      dxz     :     0.008457
      dyz     :     0.027178
      dx2y2   :     0.019178
      dxy     :     0.021288
  4 C s       :     2.909958  s :     2.909958
      pz      :     1.091234  p :     3.216904
      px      :     1.051288
      py      :     1.074382
      dz2     :     0.013538  d :     0.093586
      dxz     :     0.011900
      dyz     :     0.025866
      dx2y2   :     0.020426
      dxy     :     0.021856
  5 C s       :     2.947042  s :     2.947042
      pz      :     1.110251  p :     3.299012
      px      :     1.096671
      py      :     1.092090
      dz2     :     0.008271  d :     0.075618
      dxz     :     0.019390
      dyz     :     0.016806
      dx2y2   :     0.011009
      dxy     :     0.020142
  6 H s       :     0.888548  s :     0.888548
  7 H s       :     0.888828  s :     0.888828
  8 H s       :     0.891259  s :     0.891259
  9 H s       :     0.897007  s :     0.897007
 10 H s       :     0.891540  s :     0.891540
 11 H s       :     0.894306  s :     0.894306
 12 H s       :     0.895269  s :     0.895269
 13 H s       :     0.890664  s :     0.890664
 14 H s       :     0.883979  s :     0.883979
 15 H s       :     0.897864  s :     0.897864
 16 H s       :     0.894422  s :     0.894422
 17 H s       :     0.889329  s :     0.889329
 18 H s       :     0.888992  s :     0.888992
 19 H s       :     0.892546  s :     0.892546

SPIN
  0 C s       :     0.000000  s :     0.000000
      pz      :     0.000000  p :     0.000000
      px      :     0.000000
      py      :     0.000000
      dz2     :     0.000000  d :     0.000000
      dxz     :     0.000000
      dyz     :     0.000000
      dx2y2   :     0.000000
      dxy     :     0.000000
  1 C s       :     0.000000  s :     0.000000
      pz      :     0.000000  p :     0.000000
      px      :     0.000000
      py      :     0.000000
      dz2     :     0.000000  d :     0.000000
      dxz     :     0.000000
      dyz     :     0.000000
      dx2y2   :     0.000000
      dxy     :     0.000000
  2 C s       :     0.000000  s :     0.000000
      pz      :     0.000000  p :     0.000000
      px      :     0.000000
      py      :     0.000000
      dz2     :     0.000000  d :     0.000000
      dxz     :     0.000000
      dyz     :     0.000000
      dx2y2   :     0.000000
      dxy     :     0.000000
  3 C s       :     0.000000  s :     0.000000
      pz      :     0.000000  p :     0.000000
      px      :     0.000000
      py      :     0.000000
      dz2     :     0.000000  d :     0.000000
      dxz     :     0.000000
      dyz     :     0.000000
      dx2y2   :     0.000000
      dxy     :     0.000000
  4 C s       :     0.000000  s :     0.000000
      pz      :     0.000000  p :     0.000000
      px      :     0.000000
      py      :     0.000000
      dz2     :     0.000000  d :     0.000000
      dxz     :     0.000000
      dyz     :     0.000000
      dx2y2   :     0.000000
      dxy     :     0.000000
  5 C s       :     0.000000  s :     0.000000
      pz      :     0.000000  p :     0.000000
      px      :     0.000000
      py      :     0.000000
      dz2     :     0.000000  d :     0.000000
      dxz     :     0.000000
      dyz     :     0.000000
      dx2y2   :     0.000000
      dxy     :     0.000000
  6 H s       :     0.000000  s :     0.000000
  7 H s       :     0.000000  s :     0.000000
  8 H s       :     0.000000  s :     0.000000
  9 H s       :     0.000000  s :     0.000000
 10 H s       :     0.000000  s :     0.000000
 11 H s       :     0.000000  s :     0.000000
 12 H s       :     0.000000  s :     0.000000
 13 H s       :     0.000000  s :     0.000000
 14 H s       :     0.000000  s :     0.000000
 15 H s       :     0.000000  s :     0.000000
 16 H s       :     0.000000  s :     0.000000
 17 H s       :     0.000000  s :     0.000000
 18 H s       :     0.000000  s :     0.000000
 19 H s       :     0.000000  s :     0.000000


                      *****************************
                      * MAYER POPULATION ANALYSIS *
                      *****************************

  NA   - Mulliken gross atomic population
  ZA   - Total nuclear charge
  QA   - Mulliken gross atomic charge
  VA   - Mayer's total valence
  BVA  - Mayer's bonded valence
  FA   - Mayer's free valence

  ATOM       NA         ZA         QA         VA         BVA        FA
  0 C      6.2570     6.0000    -0.2570     4.0119     4.0119    -0.0000
  1 C      6.1535     6.0000    -0.1535     4.1755     4.1755     0.0000
  2 C      6.1091     6.0000    -0.1091     4.1027     4.1027     0.0000
  3 C      6.1756     6.0000    -0.1756     4.1260     4.1260     0.0000
  4 C      6.1954     6.0000    -0.1954     4.1379     4.1379     0.0000
  5 C      6.2225     6.0000    -0.2225     3.9930     3.9930     0.0000
  6 H      0.9136     1.0000     0.0864     0.9521     0.9521     0.0000
  7 H      0.8975     1.0000     0.1025     0.9651     0.9651     0.0000
  8 H      0.9145     1.0000     0.0855     0.9531     0.9531     0.0000
  9 H      0.9323     1.0000     0.0677     0.9461     0.9461     0.0000
 10 H      0.9324     1.0000     0.0676     0.9435     0.9435     0.0000
 11 H      0.9388     1.0000     0.0612     0.9479     0.9479     0.0000
 12 H      0.9333     1.0000     0.0667     0.9580     0.9580     0.0000
 13 H      0.9084     1.0000     0.0916     0.9548     0.9548     0.0000
 14 H      0.9218     1.0000     0.0782     0.9444     0.9444     0.0000
 15 H      0.9233     1.0000     0.0767     0.9537     0.9537     0.0000
 16 H      0.9267     1.0000     0.0733     0.9436     0.9436     0.0000
 17 H      0.9172     1.0000     0.0828     0.9563     0.9563     0.0000
 18 H      0.9116     1.0000     0.0884     0.9542     0.9542     0.0000
 19 H      0.9156     1.0000     0.0844     0.9675     0.9675     0.0000

  Mayer bond orders larger than 0.100000
B(  0-C ,  1-C ) :   1.1504 B(  0-C ,  6-H ) :   0.9588 B(  0-C ,  7-H ) :   0.9447 
B(  0-C ,  8-H ) :   0.9615 B(  1-C ,  2-C ) :   1.1301 B(  1-C ,  9-H ) :   0.9358 
B(  1-C , 10-H ) :   0.9310 B(  2-C ,  3-C ) :   1.1198 B(  2-C , 11-H ) :   0.9211 
B(  2-C , 12-H ) :   0.9349 B(  3-C ,  4-C ) :   1.1191 B(  3-C , 13-H ) :   0.9306 
B(  3-C , 14-H ) :   0.9217 B(  4-C ,  5-C ) :   1.1246 B(  4-C , 15-H ) :   0.9413 
B(  4-C , 16-H ) :   0.9377 B(  5-C , 17-H ) :   0.9598 B(  5-C , 18-H ) :   0.9599 
B(  5-C , 19-H ) :   0.9616 

-------
TIMINGS
-------

Total SCF time: 0 days 0 hours 6 min 15 sec 

Total time                  ....     375.499 sec
Sum of individual times     ....     294.943 sec  ( 78.5%)

Fock matrix formation       ....     249.074 sec  ( 66.3%)
  XC integration            ....     115.569 sec  ( 46.4% of F)
    Basis function eval.    ....       1.561 sec  (  1.4% of XC)
    Density eval.           ....       1.318 sec  (  1.1% of XC)
    XC-Functional eval.     ....       0.362 sec  (  0.3% of XC)
    XC-Potential eval.      ....       1.756 sec  (  1.5% of XC)
Diagonalization             ....       0.092 sec  (  0.0%)
Density matrix formation    ....      26.816 sec  (  7.1%)
Population analysis         ....       4.694 sec  (  1.3%)
Initial guess               ....       0.350 sec  (  0.1%)
Orbital Transformation      ....       0.000 sec  (  0.0%)
Orbital Orthonormalization  ....       0.000 sec  (  0.0%)
DIIS solution               ....       7.344 sec  (  2.0%)
Grid generation             ....       6.572 sec  (  1.8%)


-------------------------------------------------------------------------------
                          DFT DISPERSION CORRECTION                            
                                                                               
                              DFTD3 V3.1  Rev 1                                
                          USING Becke-Johnson damping                          
-------------------------------------------------------------------------------
The B3LYP functional is recognized
Active option DFTDOPT                   ...         4   

molecular C6(AA) [au] = 2517.579225 


            DFT-D V3
 parameters
 s6 scaling factor         :     1.0000 
 a1 scaling factor         :     0.3981 
 s8 scaling factor         :     1.9889 
 a2 scaling factor         :     4.4211 
 ad hoc parameters k1-k3   :    16.0000     1.3333    -4.0000 

 Edisp/kcal,au: -15.865176729007  -0.025282765747 
 E6   /kcal   :  -7.973077443 
 E8   /kcal   :  -7.892099286 
 % E8         :  49.744792767 

-------------------------   ----------------
Dispersion correction           -0.025282766
-------------------------   ----------------


-------------------------   --------------------
FINAL SINGLE POINT ENERGY      -236.694354857202
-------------------------   --------------------

------------------------------------------------------------------------------
                         ORCA SCF GRADIENT CALCULATION
------------------------------------------------------------------------------

Gradient of the Kohn-Sham DFT energy:
Kohn-Sham wavefunction type      ... UKS
Hartree-Fock exchange scaling    ...    0.200
Number of operators              ...    2
Number of atoms                  ...   20
Basis set dimensions             ...  112
Integral neglect threshold       ... 1.0e-12
Integral primitive cutoff        ... 1.0e-14

Nuclear repulsion gradient       ... done
One Electron Gradient            ... done
Pre-screening matrix             ... done
Starting the two electron gradient:
Two electron gradient done
Exchange-correlation gradient    ... done
Dispersion correction            ... done

------------------
CARTESIAN GRADIENT
------------------

   1   C   :   -0.035142487    0.009257211    0.003305636
   2   C   :   -0.023604265   -0.025419531    0.009759960
   3   C   :    0.011119038   -0.025753998   -0.010904358
   4   C   :    0.023314784   -0.018684787   -0.009890049
   5   C   :    0.008162797    0.000287372   -0.006844851
   6   C   :    0.013712091    0.008040938   -0.009527757
   7   H   :    0.003076548    0.006174071   -0.006937448
   8   H   :    0.000656625    0.001612540   -0.000811403
   9   H   :    0.006067172    0.006900769    0.003333875
  10   H   :    0.001412045    0.003864195   -0.003072128
  11   H   :    0.004008082    0.001798442    0.008784986
  12   H   :    0.001049883    0.001014475    0.001101694
  13   H   :   -0.005084433    0.004435278   -0.006011534
  14   H   :   -0.005611676    0.003408444   -0.002333199
  15   H   :   -0.005152378    0.012407722    0.009203822
  16   H   :   -0.003057054    0.003841873    0.000972665
  17   H   :   -0.005197253   -0.002253783    0.006180468
  18   H   :    0.002215339    0.002581702    0.007830471
  19   H   :    0.005689732    0.002142477    0.000557765
  20   H   :    0.002365409    0.004344592    0.005301385

Difference to translation invariance:
           :    0.0000000000   -0.0000000000    0.0000000000

Norm of the cartesian gradient     ...    0.0771891511
RMS gradient                       ...    0.0099650766
MAX gradient                       ...    0.0351424873

-------
TIMINGS
-------

Total SCF gradient time            ...       10.551 sec

One electron gradient       ....       0.070 sec  (  0.7%)
Prescreening matrices       ....       0.039 sec  (  0.4%)
Two electron gradient       ....       4.551 sec  ( 43.1%)
XC gradient                 ....       5.740 sec  ( 54.4%)
------------------------------------------------------------------------------
                         ORCA GEOMETRY RELAXATION STEP
------------------------------------------------------------------------------

Reading the OPT-File                    .... done
Getting information on internals        .... done
Copying old internal coords+grads       .... done
Making the new internal coordinates     .... (new redundants).... done
Validating the new internal coordinates .... (new redundants).... done
Calculating the B-matrix                .... done
Calculating the G,G- and P matrices     .... done
Transforming gradient to internals      .... done
Projecting the internal gradient        .... done
Number of atoms                         ....  20
Number of internal coordinates          .... 100
Current Energy                          ....  -236.694354857 Eh
Current gradient norm                   ....     0.077189151 Eh/bohr
Maximum allowed component of the step   ....  0.300
Current trust radius                    ....  0.300
Evaluating the initial hessian          ....  (Almloef) done
Projecting the Hessian                  .... done
Forming the augmented Hessian           .... done
Diagonalizing the augmented Hessian     .... done
Last element of RFO vector              ....  0.931023963
Lowest eigenvalues of augmented Hessian:
 -0.026008685  0.011700140  0.013152095  0.014106201  0.014793201
Length of the computed step             ....  0.391996413
Warning: the length of the step is outside the trust region - taking restricted step instead
The input lambda is                     ....    -0.026009
   iter:   1  x=   -0.040207  g=    4.483624 f(x)=     0.063661
   iter:   2  x=   -0.049881  g=    2.089993 f(x)=     0.020218
   iter:   3  x=   -0.052373  g=    1.423243 f(x)=     0.003548
   iter:   4  x=   -0.052489  g=    1.305194 f(x)=     0.000151
   iter:   5  x=   -0.052489  g=    1.300114 f(x)=     0.000000
   iter:   6  x=   -0.052489  g=    1.300104 f(x)=     0.000000
   iter:   7  x=   -0.052489  g=    1.300104 f(x)=     0.000000
The output lambda is                    ....    -0.052489 (7 iterations)
The final length of the internal step   ....  0.300000000
Converting the step to cartesian space:
 Initial RMS(Int)=    0.0300000000
Transforming coordinates:
 Iter   0:  RMS(Cart)=    0.1152232447 RMS(Int)=    0.0299719153
 Iter   1:  RMS(Cart)=    0.0014763141 RMS(Int)=    0.0009165695
 Iter   2:  RMS(Cart)=    0.0000957787 RMS(Int)=    0.0000396056
 Iter   3:  RMS(Cart)=    0.0000039935 RMS(Int)=    0.0000028148
 Iter   4:  RMS(Cart)=    0.0000002520 RMS(Int)=    0.0000001359
 Iter   5:  RMS(Cart)=    0.0000000133 RMS(Int)=    0.0000000099
done
Storing new coordinates                 .... done

                                .--------------------.
          ----------------------|Geometry convergence|-------------------------
          Item                value                   Tolerance       Converged
          ---------------------------------------------------------------------
          RMS gradient        0.0092511785            0.0001000000      NO
          MAX gradient        0.0457444926            0.0003000000      NO
          RMS step            0.0300000000            0.0020000000      NO
          MAX step            0.0918521637            0.0040000000      NO
          ........................................................
          Max(Bonds)      0.0486      Max(Angles)    4.45
          Max(Dihed)        4.07      Max(Improp)    0.00
          ---------------------------------------------------------------------

The optimization has not yet converged - more geometry cycles are needed


    ---------------------------------------------------------------------------
                         Redundant Internal Coordinates
                            (Angstroem and degrees)

        Definition                    Value    dE/dq     Step     New-Value
    ----------------------------------------------------------------------------
     1. B(C   1,C   0)                1.4921 -0.032740  0.0360    1.5280   
     2. B(C   2,C   1)                1.4820 -0.045744  0.0486    1.5307   
     3. B(C   3,C   2)                1.4997 -0.034032  0.0383    1.5380   
     4. B(C   4,C   3)                1.5261 -0.017335  0.0213    1.5474   
     5. B(C   5,C   4)                1.5076 -0.028092  0.0325    1.5401   
     6. B(H   6,C   0)                1.1188  0.007003 -0.0098    1.1089   
     7. B(H   7,C   0)                1.0976 -0.001543  0.0020    1.0996   
     8. B(H   8,C   0)                1.1153  0.005261 -0.0073    1.1079   
     9. B(H   9,C   1)                1.1142  0.004071 -0.0056    1.1085   
    10. B(H  10,C   1)                1.1203  0.007667 -0.0108    1.1094   
    11. B(H  11,C   2)                1.1094  0.001398 -0.0019    1.1075   
    12. B(H  12,C   2)                1.1199  0.008427 -0.0119    1.1080   
    13. B(H  13,C   3)                1.0993 -0.001139  0.0015    1.1008   
    14. B(H  14,C   3)                1.1064  0.001487 -0.0020    1.1044   
    15. B(H  15,C   4)                1.1096  0.002433 -0.0033    1.1063   
    16. B(H  16,C   4)                1.1170  0.006172 -0.0086    1.1084   
    17. B(H  17,C   5)                1.1133  0.004859 -0.0067    1.1066   
    18. B(H  18,C   5)                1.0977 -0.004172  0.0055    1.1032   
    19. B(H  19,C   5)                1.0982 -0.004060  0.0053    1.1036   
    20. A(H   7,C   0,H   8)          110.62  0.005132   -1.33    109.29   
    21. A(C   1,C   0,H   7)          115.51  0.003663   -0.73    114.78   
    22. A(C   1,C   0,H   6)          106.90 -0.010413    1.88    108.78   
    23. A(H   6,C   0,H   7)          107.76  0.003849   -0.52    107.24   
    24. A(H   6,C   0,H   8)          105.68  0.004044   -0.10    105.58   
    25. A(C   1,C   0,H   8)          109.81 -0.006485    0.94    110.75   
    26. A(C   2,C   1,H  10)          108.31  0.001913   -0.21    108.10   
    27. A(C   0,C   1,H  10)          106.98  0.003012   -0.41    106.57   
    28. A(C   2,C   1,H   9)          109.74  0.003024   -0.34    109.40   
    29. A(C   0,C   1,H   9)          110.06  0.002280   -0.21    109.85   
    30. A(H   9,C   1,H  10)          105.18 -0.000458   -0.41    104.77   
    31. A(C   0,C   1,C   2)          115.97 -0.009025    1.41    117.38   
    32. A(H  11,C   2,H  12)          105.08 -0.000636   -0.39    104.69   
    33. A(C   1,C   2,C   3)          115.78 -0.009758    1.52    117.30   
    34. A(C   3,C   2,H  11)          109.10  0.001830   -0.22    108.88   
    35. A(C   1,C   2,H  11)          110.10  0.004565   -0.72    109.38   
    36. A(C   1,C   2,H  12)          107.69  0.001119    0.06    107.75   
    37. A(C   3,C   2,H  12)          108.53  0.003668   -0.42    108.11   
    38. A(C   2,C   3,C   4)          107.41 -0.025182    4.45    111.86   
    39. A(H  13,C   3,H  14)          114.10  0.002113   -2.39    111.70   
    40. A(C   4,C   3,H  14)          106.05  0.005170   -0.05    105.99   
    41. A(C   2,C   3,H  14)          108.15  0.002328    0.05    108.20   
    42. A(C   4,C   3,H  13)          106.66  0.004189    0.02    106.68   
    43. A(C   2,C   3,H  13)          113.97  0.009113   -1.50    112.47   
    44. A(H  15,C   4,H  16)          105.67 -0.004019   -0.23    105.44   
    45. A(C   5,C   4,H  16)          108.30  0.004332   -0.14    108.15   
    46. A(C   3,C   4,H  16)          110.68  0.008895   -1.38    109.30   
    47. A(C   5,C   4,H  15)          111.93  0.007299   -0.82    111.11   
    48. A(C   3,C   4,H  15)          111.60  0.008547   -1.34    110.26   
    49. A(C   3,C   4,C   5)          108.60 -0.023991    3.75    112.36   
    50. A(C   4,C   5,H  17)          108.54 -0.008828    1.46    110.00   
    51. A(H  18,C   5,H  19)          109.18  0.004853   -0.92    108.26   
    52. A(H  17,C   5,H  19)          107.06  0.004713   -0.45    106.61   
    53. A(C   4,C   5,H  19)          109.79 -0.005287    0.89    110.69   
    54. A(H  17,C   5,H  18)          109.65  0.006617   -1.20    108.45   
    55. A(C   4,C   5,H  18)          112.47 -0.001780    0.19    112.66   
    56. D(H   9,C   1,C   0,H   8)    148.41 -0.002911    1.59    150.00   
    57. D(H  10,C   1,C   0,H   7)    160.57 -0.000740    0.81    161.38   
    58. D(H   9,C   1,C   0,H   7)    -85.66  0.001456    0.00    -85.66   
    59. D(H  10,C   1,C   0,H   8)     34.64 -0.005106    2.39     37.04   
    60. D(H   9,C   1,C   0,H   6)     34.23  0.001089    0.24     34.47   
    61. D(C   2,C   1,C   0,H   8)    -86.29 -0.003982    2.05    -84.24   
    62. D(C   2,C   1,C   0,H   7)     39.64  0.000384    0.47     40.11   
    63. D(C   2,C   1,C   0,H   6)    159.53  0.000018    0.71    160.24   
    64. D(H  10,C   1,C   0,H   6)    -79.54 -0.001106    1.05    -78.49   
    65. D(H  11,C   2,C   1,H   9)   -144.89  0.000046   -1.19   -146.08   
    66. D(C   3,C   2,C   1,H  10)   -154.88  0.003384   -2.25   -157.14   
    67. D(C   3,C   2,C   1,C   0)    -34.66  0.002720   -2.00    -36.66   
    68. D(H  11,C   2,C   1,C   0)     89.65  0.001466   -1.72     87.93   
    69. D(H  11,C   2,C   1,H  10)    -30.57  0.002130   -1.97    -32.54   
    70. D(H  12,C   2,C   1,H  10)     83.48  0.004327   -2.77     80.71   
    71. D(H  12,C   2,C   1,H   9)    -30.83  0.002243   -1.99    -32.82   
    72. D(H  12,C   2,C   1,C   0)   -156.30  0.003663   -2.52   -158.81   
    73. D(C   3,C   2,C   1,H   9)     90.80  0.001301   -1.47     89.33   
    74. D(H  14,C   3,C   2,H  11)    -25.20  0.008013   -3.88    -29.08   
    75. D(H  14,C   3,C   2,C   1)     99.63  0.008273   -3.88     95.76   
    76. D(H  13,C   3,C   2,H  12)     92.80 -0.005817    1.21     94.01   
    77. D(H  13,C   3,C   2,H  11)   -153.22 -0.003677    0.42   -152.80   
    78. D(H  13,C   3,C   2,C   1)    -28.39 -0.003417    0.42    -27.97   
    79. D(C   4,C   3,C   2,H  11)     88.86  0.002591   -1.70     87.16   
    80. D(C   4,C   3,C   2,H  12)    -25.13  0.000451   -0.90    -26.03   
    81. D(H  14,C   3,C   2,H  12)   -139.18  0.005873   -3.08   -142.27   
    82. D(C   4,C   3,C   2,C   1)   -146.31  0.002851   -1.69   -148.01   
    83. D(H  15,C   4,C   3,C   2)     47.19  0.003111   -0.06     47.13   
    84. D(C   5,C   4,C   3,H  14)    -73.50 -0.005362    2.75    -70.75   
    85. D(C   5,C   4,C   3,H  13)     48.48  0.002063   -0.06     48.41   
    86. D(C   5,C   4,C   3,C   2)    171.05  0.001243    0.64    171.69   
    87. D(H  16,C   4,C   3,H  14)     45.26 -0.009576    4.07     49.33   
    88. D(H  16,C   4,C   3,H  13)    167.23 -0.002151    1.26    168.49   
    89. D(H  16,C   4,C   3,C   2)    -70.19 -0.002971    1.96    -68.24   
    90. D(H  15,C   4,C   3,H  14)    162.64 -0.003494    2.05    164.70   
    91. D(H  15,C   4,C   3,H  13)    -75.38  0.003931   -0.76    -76.15   
    92. D(H  19,C   5,C   4,H  16)   -144.57  0.003155   -1.80   -146.37   
    93. D(H  19,C   5,C   4,H  15)     99.34  0.001277   -0.96     98.37   
    94. D(H  19,C   5,C   4,C   3)    -24.32  0.002492   -1.37    -25.69   
    95. D(H  18,C   5,C   4,H  16)     93.64  0.001914   -1.38     92.26   
    96. D(H  18,C   5,C   4,H  15)    -22.44  0.000036   -0.55    -23.00   
    97. D(H  18,C   5,C   4,C   3)   -146.10  0.001251   -0.96   -147.06   
    98. D(H  17,C   5,C   4,H  16)    -27.86  0.000819   -1.00    -28.86   
    99. D(H  17,C   5,C   4,H  15)   -143.94 -0.001059   -0.17   -144.12   
   100. D(H  17,C   5,C   4,C   3)     92.40  0.000156   -0.58     91.82   
    ----------------------------------------------------------------------------

         *************************************************************
         *                GEOMETRY OPTIMIZATION CYCLE   2            *
         *************************************************************
---------------------------------
CARTESIAN COORDINATES (ANGSTROEM)
---------------------------------
  C      2.639051   -0.444323   -0.076811
  C      1.926269    0.903936   -0.172058
  C      0.525534    1.004309    0.436851
  C     -0.390019   -0.224577    0.306453
  C     -1.880216    0.177437    0.196131
  C     -2.787182   -1.021338   -0.138937
  H      3.443006   -0.477578   -0.839907
  H      1.994495   -1.319381   -0.244057
  H      3.152067   -0.548804    0.899637
  H      1.893287    1.238347   -1.228421
  H      2.577679    1.642927    0.338262
  H      0.608627    1.277406    1.506925
  H      0.013480    1.866605   -0.034267
  H     -0.158356   -0.827967   -0.584662
  H     -0.303610   -0.817409    1.234257
  H     -2.003678    0.990099   -0.544311
  H     -2.215968    0.605504    1.161834
  H     -3.162390   -1.484072    0.793622
  H     -3.653103   -0.738264   -0.761166
  H     -2.218971   -1.802857   -0.672095

----------------------------
CARTESIAN COORDINATES (A.U.)
----------------------------
  NO LB      ZA    FRAG     MASS         X           Y           Z
   0 C     6.0000    0    12.011    4.987083   -0.839649   -0.145151
   1 C     6.0000    0    12.011    3.640120    1.708192   -0.325142
   2 C     6.0000    0    12.011    0.993115    1.897869    0.825529
   3 C     6.0000    0    12.011   -0.737030   -0.424388    0.579113
   4 C     6.0000    0    12.011   -3.553093    0.335308    0.370634
   5 C     6.0000    0    12.011   -5.267011   -1.930048   -0.262553
   6 H     1.0000    0     1.008    6.506339   -0.902492   -1.587194
   7 H     1.0000    0     1.008    3.769050   -2.493269   -0.461202
   8 H     1.0000    0     1.008    5.956544   -1.037090    1.700067
   9 H     1.0000    0     1.008    3.577794    2.340137   -2.321379
  10 H     1.0000    0     1.008    4.871108    3.104683    0.639223
  11 H     1.0000    0     1.008    1.150138    2.413947    2.847675
  12 H     1.0000    0     1.008    0.025473    3.527371   -0.064756
  13 H     1.0000    0     1.008   -0.299250   -1.564630   -1.104852
  14 H     1.0000    0     1.008   -0.573740   -1.544679    2.332408
  15 H     1.0000    0     1.008   -3.786402    1.871015   -1.028599
  16 H     1.0000    0     1.008   -4.187572    1.144237    2.195548
  17 H     1.0000    0     1.008   -5.976052   -2.804489    1.499729
  18 H     1.0000    0     1.008   -6.903364   -1.395117   -1.438395
  19 H     1.0000    0     1.008   -4.193248   -3.406906   -1.270076

--------------------------------
INTERNAL COORDINATES (ANGSTROEM)
--------------------------------
 C      0   0   0     0.000000000000     0.00000000     0.00000000
 C      1   0   0     1.528048778137     0.00000000     0.00000000
 C      2   1   0     1.530654649403   117.38298048     0.00000000
 C      3   2   1     1.537986099957   117.29947370   323.34176624
 C      4   3   2     1.547407836262   111.82320475   212.01609242
 C      5   4   3     1.540103926792   112.35956095   171.69434916
 H      1   2   3     1.108948337644   108.76825215   160.22660533
 H      1   2   3     1.099613394184   114.78714912    40.10965120
 H      1   2   3     1.107949698486   110.74004639   275.77482621
 H      2   1   3     1.108522573188   109.84375991   234.23069223
 H      2   1   3     1.109445876302   106.56854851   121.27264921
 H      3   2   1     1.107494320767   109.38280590    87.92757056
 H      3   2   1     1.108018474758   107.74599356   201.18424694
 H      4   3   2     1.100833407040   112.41537158   332.01664161
 H      4   3   2     1.104417057731   108.12552430    95.75684853
 H      5   4   3     1.106307838064   110.24465161    47.14532063
 H      5   4   3     1.108400856850   109.26482897   291.75298966
 H      6   5   4     1.106603289803   109.98729736    91.83153942
 H      6   5   4     1.103230905486   112.65686605   212.94495825
 H      6   5   4     1.103582438830   110.67781504   334.30952613

---------------------------
INTERNAL COORDINATES (A.U.)
---------------------------
 C      0   0   0     0.000000000000     0.00000000     0.00000000
 C      1   0   0     2.887593709952     0.00000000     0.00000000
 C      2   1   0     2.892518092985   117.38298048     0.00000000
 C      3   2   1     2.906372526696   117.29947370   323.34176624
 C      4   3   2     2.924177028019   111.82320475   212.01609242
 C      5   4   3     2.910374639413   112.35956095   171.69434916
 H      1   2   3     2.095608654814   108.76825215   160.22660533
 H      1   2   3     2.077968168200   114.78714912    40.10965120
 H      1   2   3     2.093721500299   110.74004639   275.77482621
[...]
  32   0.0000       0.139362         3.7922 
  33   0.0000       0.151043         4.1101 
  34   0.0000       0.155796         4.2394 
  35   0.0000       0.164737         4.4827 
  36   0.0000       0.168656         4.5894 
  37   0.0000       0.175079         4.7641 
  38   0.0000       0.187506         5.1023 
  39   0.0000       0.213231         5.8023 
  40   0.0000       0.240062         6.5324 
  41   0.0000       0.246709         6.7133 
  42   0.0000       0.260712         7.0943 
  43   0.0000       0.278442         7.5768 
  44   0.0000       0.411747        11.2042 
  45   0.0000       0.424942        11.5633 
  46   0.0000       0.430145        11.7048 
  47   0.0000       0.433335        11.7916 
  48   0.0000       0.441774        12.0213 
  49   0.0000       0.457763        12.4564 
  50   0.0000       0.487550        13.2669 
  51   0.0000       0.512858        13.9556 
  52   0.0000       0.555261        15.1094 
  53   0.0000       0.596999        16.2452 
  54   0.0000       0.623968        16.9790 
  55   0.0000       0.634190        17.2572 
  56   0.0000       0.654933        17.8216 
  57   0.0000       0.662939        18.0395 
  58   0.0000       0.677425        18.4337 
  59   0.0000       0.683528        18.5997 
  60   0.0000       0.686382        18.6774 
  61   0.0000       0.698454        19.0059 
  62   0.0000       0.706780        19.2325 
  63   0.0000       0.709114        19.2960 
  64   0.0000       0.714250        19.4357 
  65   0.0000       0.719661        19.5830 
  66   0.0000       0.723481        19.6869 
  67   0.0000       0.724566        19.7164 
  68   0.0000       0.731419        19.9029 
  69   0.0000       0.739110        20.1122 
  70   0.0000       0.739417        20.1206 
  71   0.0000       0.751664        20.4538 
  72   0.0000       0.758786        20.6476 
  73   0.0000       0.765896        20.8411 
  74   0.0000       0.775095        21.0914 
  75   0.0000       0.916975        24.9522 
  76   0.0000       0.978123        26.6161 
  77   0.0000       1.020249        27.7624 
  78   0.0000       1.044070        28.4106 
  79   0.0000       1.061297        28.8794 
  80   0.0000       1.116894        30.3922 
  81   0.0000       1.149605        31.2824 
  82   0.0000       1.407676        38.3048 
  83   0.0000       1.476324        40.1728 
  84   0.0000       1.517361        41.2895 
  85   0.0000       1.632286        44.4168 
  86   0.0000       1.680016        45.7156 
  87   0.0000       1.750670        47.6381 
  88   0.0000       1.838050        50.0159 
  89   0.0000       1.868508        50.8447 
  90   0.0000       1.881643        51.2021 
  91   0.0000       1.903545        51.7981 
  92   0.0000       1.919376        52.2289 
  93   0.0000       1.949462        53.0476 
  94   0.0000       1.969020        53.5798 
  95   0.0000       1.986295        54.0498 
  96   0.0000       2.017134        54.8890 
  97   0.0000       2.084090        56.7110 
  98   0.0000       2.128273        57.9133 
  99   0.0000       2.159533        58.7639 
 100   0.0000       2.195395        59.7397 
 101   0.0000       2.230443        60.6934 
 102   0.0000       2.265710        61.6531 
 103   0.0000       2.287135        62.2361 
 104   0.0000       2.329764        63.3961 
 105   0.0000       2.353044        64.0296 
 106   0.0000       2.393237        65.1233 
 107   0.0000       2.524063        68.6832 
 108   0.0000       2.555179        69.5300 
 109   0.0000       2.601348        70.7863 
 110   0.0000       2.724345        74.1332 
 111   0.0000       2.768087        75.3235 

                    ********************************
                    * MULLIKEN POPULATION ANALYSIS *
                    ********************************

------------------------------------------
FOD BASED MULLIKEN REDUCED ORBITAL CHARGES
------------------------------------------
  0 C s       :    -0.000000  s :    -0.000000
      pz      :     0.000000  p :     0.000000
      px      :     0.000000
      py      :     0.000000
      dz2     :     0.000000  d :     0.000000
      dxz     :     0.000000
      dyz     :     0.000000
      dx2y2   :     0.000000
      dxy     :     0.000000
  1 C s       :    -0.000000  s :    -0.000000
      pz      :     0.000000  p :     0.000000
      px      :     0.000000
      py      :     0.000000
      dz2     :     0.000000  d :     0.000000
      dxz     :     0.000000
      dyz     :     0.000000
      dx2y2   :     0.000000
      dxy     :     0.000000
  2 C s       :    -0.000000  s :    -0.000000
      pz      :     0.000000  p :     0.000000
      px      :     0.000000
      py      :     0.000000
      dz2     :     0.000000  d :     0.000000
      dxz     :     0.000000
      dyz     :     0.000000
      dx2y2   :     0.000000
      dxy     :     0.000000
  3 C s       :    -0.000000  s :    -0.000000
      pz      :     0.000000  p :     0.000000
      px      :     0.000000
      py      :     0.000000
      dz2     :     0.000000  d :     0.000000
      dxz     :     0.000000
      dyz     :     0.000000
      dx2y2   :     0.000000
      dxy     :     0.000000
  4 C s       :    -0.000000  s :    -0.000000
      pz      :     0.000000  p :     0.000000
      px      :     0.000000
      py      :     0.000000
      dz2     :     0.000000  d :     0.000000
      dxz     :     0.000000
      dyz     :     0.000000
      dx2y2   :     0.000000
      dxy     :     0.000000
  5 C s       :    -0.000000  s :    -0.000000
      pz      :     0.000000  p :     0.000000
      px      :     0.000000
      py      :     0.000000
      dz2     :     0.000000  d :     0.000000
      dxz     :     0.000000
      dyz     :     0.000000
      dx2y2   :     0.000000
      dxy     :     0.000000
  6 H s       :     0.000000  s :     0.000000
  7 H s       :     0.000000  s :     0.000000
  8 H s       :     0.000000  s :     0.000000
  9 H s       :     0.000000  s :     0.000000
 10 H s       :     0.000000  s :     0.000000
 11 H s       :     0.000000  s :     0.000000
 12 H s       :     0.000000  s :     0.000000
 13 H s       :     0.000000  s :     0.000000
 14 H s       :     0.000000  s :     0.000000
 15 H s       :     0.000000  s :     0.000000
 16 H s       :     0.000000  s :     0.000000
 17 H s       :     0.000000  s :     0.000000
 18 H s       :     0.000000  s :     0.000000
 19 H s       :     0.000000  s :     0.000000


                     *******************************
                     * LOEWDIN POPULATION ANALYSIS *
                     *******************************

-------------------------------------------
LOEWDIN ATOMIC CHARGES AND SPIN POPULATIONS
-------------------------------------------
   0 C :   -0.322197    0.000000
   1 C :   -0.218046    0.000000
   2 C :   -0.210440    0.000000
   3 C :   -0.214044    0.000000
   4 C :   -0.217198    0.000000
   5 C :   -0.318346    0.000000
   6 H :    0.111440    0.000000
   7 H :    0.108423    0.000000
   8 H :    0.109159    0.000000
   9 H :    0.106103    0.000000
  10 H :    0.107234    0.000000
  11 H :    0.104583    0.000000
  12 H :    0.105404    0.000000
  13 H :    0.104577    0.000000
  14 H :    0.105073    0.000000
  15 H :    0.104787    0.000000
  16 H :    0.106013    0.000000
  17 H :    0.108252    0.000000
  18 H :    0.110493    0.000000
  19 H :    0.108729    0.000000

----------------------------------------------------
LOEWDIN REDUCED ORBITAL CHARGES AND SPIN POPULATIONS
----------------------------------------------------
CHARGE
  0 C s       :     2.952232  s :     2.952232
      pz      :     1.106010  p :     3.296705
      px      :     1.098073
      py      :     1.092622
      dz2     :     0.024909  d :     0.073259
      dxz     :     0.006681
      dyz     :     0.007914
      dx2y2   :     0.019579
      dxy     :     0.014177
  1 C s       :     2.911291  s :     2.911291
      pz      :     1.086269  p :     3.216213
      px      :     1.055865
      py      :     1.074079
      dz2     :     0.028885  d :     0.090542
      dxz     :     0.010557
      dyz     :     0.008321
      dx2y2   :     0.017795
      dxy     :     0.024984
  2 C s       :     2.913566  s :     2.913566
      pz      :     1.087872  p :     3.206829
      px      :     1.045730
      py      :     1.073227
      dz2     :     0.025880  d :     0.090045
      dxz     :     0.010787
      dyz     :     0.010945
      dx2y2   :     0.020179
      dxy     :     0.022254
  3 C s       :     2.914236  s :     2.914236
      pz      :     1.088696  p :     3.209902
      px      :     1.042976
      py      :     1.078230
      dz2     :     0.024733  d :     0.089906
      dxz     :     0.010230
      dyz     :     0.012896
      dx2y2   :     0.021055
      dxy     :     0.020993
  4 C s       :     2.911810  s :     2.911810
      pz      :     1.090600  p :     3.214670
      px      :     1.048310
      py      :     1.075760
      dz2     :     0.024554  d :     0.090718
      dxz     :     0.010325
      dyz     :     0.013080
      dx2y2   :     0.021237
      dxy     :     0.021522
  5 C s       :     2.952458  s :     2.952458
      pz      :     1.111783  p :     3.292470
      px      :     1.089587
      py      :     1.091100
      dz2     :     0.020843  d :     0.073419
      dxz     :     0.006164
      dyz     :     0.013032
      dx2y2   :     0.019655
      dxy     :     0.013725
  6 H s       :     0.888560  s :     0.888560
  7 H s       :     0.891577  s :     0.891577
  8 H s       :     0.890841  s :     0.890841
  9 H s       :     0.893897  s :     0.893897
 10 H s       :     0.892766  s :     0.892766
 11 H s       :     0.895417  s :     0.895417
 12 H s       :     0.894596  s :     0.894596
 13 H s       :     0.895423  s :     0.895423
 14 H s       :     0.894927  s :     0.894927
 15 H s       :     0.895213  s :     0.895213
 16 H s       :     0.893987  s :     0.893987
 17 H s       :     0.891748  s :     0.891748
 18 H s       :     0.889507  s :     0.889507
 19 H s       :     0.891271  s :     0.891271

SPIN
  0 C s       :     0.000000  s :     0.000000
      pz      :     0.000000  p :     0.000000
      px      :     0.000000
      py      :     0.000000
      dz2     :     0.000000  d :     0.000000
      dxz     :     0.000000
      dyz     :     0.000000
      dx2y2   :     0.000000
      dxy     :     0.000000
  1 C s       :     0.000000  s :     0.000000
      pz      :     0.000000  p :     0.000000
      px      :     0.000000
      py      :     0.000000
      dz2     :     0.000000  d :     0.000000
      dxz     :     0.000000
      dyz     :     0.000000
      dx2y2   :     0.000000
      dxy     :     0.000000
  2 C s       :     0.000000  s :     0.000000
      pz      :     0.000000  p :     0.000000
      px      :     0.000000
      py      :     0.000000
      dz2     :     0.000000  d :     0.000000
      dxz     :     0.000000
      dyz     :     0.000000
      dx2y2   :     0.000000
      dxy     :     0.000000
  3 C s       :     0.000000  s :     0.000000
      pz      :     0.000000  p :     0.000000
      px      :     0.000000
      py      :     0.000000
      dz2     :     0.000000  d :     0.000000
      dxz     :     0.000000
      dyz     :     0.000000
      dx2y2   :     0.000000
      dxy     :     0.000000
  4 C s       :     0.000000  s :     0.000000
      pz      :     0.000000  p :     0.000000
      px      :     0.000000
      py      :     0.000000
      dz2     :     0.000000  d :     0.000000
      dxz     :     0.000000
      dyz     :     0.000000
      dx2y2   :     0.000000
      dxy     :     0.000000
  5 C s       :     0.000000  s :     0.000000
      pz      :     0.000000  p :     0.000000
      px      :     0.000000
      py      :     0.000000
      dz2     :     0.000000  d :     0.000000
      dxz     :     0.000000
      dyz     :     0.000000
      dx2y2   :     0.000000
      dxy     :     0.000000
  6 H s       :     0.000000  s :     0.000000
  7 H s       :     0.000000  s :     0.000000
  8 H s       :     0.000000  s :     0.000000
  9 H s       :     0.000000  s :     0.000000
 10 H s       :     0.000000  s :     0.000000
 11 H s       :     0.000000  s :     0.000000
 12 H s       :     0.000000  s :     0.000000
 13 H s       :     0.000000  s :     0.000000
 14 H s       :     0.000000  s :     0.000000
 15 H s       :     0.000000  s :     0.000000
 16 H s       :     0.000000  s :     0.000000
 17 H s       :     0.000000  s :     0.000000
 18 H s       :     0.000000  s :     0.000000
 19 H s       :     0.000000  s :     0.000000


                      *****************************
                      * MAYER POPULATION ANALYSIS *
                      *****************************

  NA   - Mulliken gross atomic population
  ZA   - Total nuclear charge
  QA   - Mulliken gross atomic charge
  VA   - Mayer's total valence
  BVA  - Mayer's bonded valence
  FA   - Mayer's free valence

  ATOM       NA         ZA         QA         VA         BVA        FA
  0 C      6.2654     6.0000    -0.2654     4.0076     4.0076     0.0000
  1 C      6.1379     6.0000    -0.1379     4.1208     4.1208     0.0000
  2 C      6.1263     6.0000    -0.1263     4.0818     4.0818     0.0000
  3 C      6.1768     6.0000    -0.1768     4.0849     4.0849     0.0000
  4 C      6.1479     6.0000    -0.1479     4.1180     4.1180     0.0000
  5 C      6.2357     6.0000    -0.2357     4.0056     4.0056     0.0000
  6 H      0.9096     1.0000     0.0904     0.9515     0.9515     0.0000
  7 H      0.9058     1.0000     0.0942     0.9577     0.9577     0.0000
  8 H      0.9113     1.0000     0.0887     0.9572     0.9572     0.0000
  9 H      0.9271     1.0000     0.0729     0.9500     0.9500     0.0000
 10 H      0.9282     1.0000     0.0718     0.9454     0.9454     0.0000
 11 H      0.9330     1.0000     0.0670     0.9554     0.9554     0.0000
 12 H      0.9364     1.0000     0.0636     0.9524     0.9524     0.0000
 13 H      0.9332     1.0000     0.0668     0.9551     0.9551     0.0000
 14 H      0.9262     1.0000     0.0738     0.9573     0.9573     0.0000
 15 H      0.9318     1.0000     0.0682     0.9506     0.9506     0.0000
 16 H      0.9283     1.0000     0.0717     0.9497     0.9497     0.0000
 17 H      0.9154     1.0000     0.0846     0.9580     0.9580     0.0000
 18 H      0.9106     1.0000     0.0894     0.9520     0.9520     0.0000
 19 H      0.9129     1.0000     0.0871     0.9572     0.9572     0.0000

  Mayer bond orders larger than 0.100000
B(  0-C ,  1-C ) :   1.1300 B(  0-C ,  6-H ) :   0.9579 B(  0-C ,  7-H ) :   0.9571 
B(  0-C ,  8-H ) :   0.9607 B(  1-C ,  2-C ) :   1.1110 B(  1-C ,  9-H ) :   0.9341 
B(  1-C , 10-H ) :   0.9365 B(  2-C ,  3-C ) :   1.1135 B(  2-C , 11-H ) :   0.9298 
B(  2-C , 12-H ) :   0.9297 B(  3-C ,  4-C ) :   1.1142 B(  3-C , 13-H ) :   0.9325 
B(  3-C , 14-H ) :   0.9276 B(  4-C ,  5-C ) :   1.1342 B(  4-C , 15-H ) :   0.9341 
B(  4-C , 16-H ) :   0.9352 B(  5-C , 17-H ) :   0.9596 B(  5-C , 18-H ) :   0.9596 
B(  5-C , 19-H ) :   0.9606 

-------
TIMINGS
-------

Total SCF time: 0 days 0 hours 3 min 20 sec 

Total time                  ....     200.434 sec
Sum of individual times     ....     163.432 sec  ( 81.5%)

Fock matrix formation       ....     139.579 sec  ( 69.6%)
  XC integration            ....      66.577 sec  ( 47.7% of F)
    Basis function eval.    ....       0.919 sec  (  1.4% of XC)
    Density eval.           ....       0.720 sec  (  1.1% of XC)
    XC-Functional eval.     ....       0.215 sec  (  0.3% of XC)
    XC-Potential eval.      ....       0.947 sec  (  1.4% of XC)
Diagonalization             ....       0.051 sec  (  0.0%)
Density matrix formation    ....      11.833 sec  (  5.9%)
Population analysis         ....       5.509 sec  (  2.7%)
Initial guess               ....       0.006 sec  (  0.0%)
Orbital Transformation      ....       0.000 sec  (  0.0%)
Orbital Orthonormalization  ....       0.003 sec  (  0.0%)
DIIS solution               ....       2.554 sec  (  1.3%)
Grid generation             ....       3.900 sec  (  1.9%)


-------------------------------------------------------------------------------
                          DFT DISPERSION CORRECTION                            
                                                                               
                              DFTD3 V3.1  Rev 1                                
                          USING Becke-Johnson damping                          
-------------------------------------------------------------------------------
The B3LYP functional is recognized
Active option DFTDOPT                   ...         4   

molecular C6(AA) [au] = 2519.017951 


            DFT-D V3
 parameters
 s6 scaling factor         :     1.0000 
 a1 scaling factor         :     0.3981 
 s8 scaling factor         :     1.9889 
 a2 scaling factor         :     4.4211 
 ad hoc parameters k1-k3   :    16.0000     1.3333    -4.0000 

 Edisp/kcal,au: -15.373162038963  -0.024498690513 
 E6   /kcal   :  -7.720937108 
 E8   /kcal   :  -7.652224931 
 % E8         :  49.776519053 

-------------------------   ----------------
Dispersion correction           -0.024498691
-------------------------   ----------------


-------------------------   --------------------
FINAL SINGLE POINT ENERGY      -236.723257986582
-------------------------   --------------------

                                *** OPTIMIZATION RUN DONE ***

                            ***************************************
                            *     ORCA property calculations      *
                            ***************************************

                                    ---------------------
                                    Active property flags
                                    ---------------------
   (+) Dipole Moment


------------------------------------------------------------------------------
                       ORCA ELECTRIC PROPERTIES CALCULATION
------------------------------------------------------------------------------

Dipole Moment Calculation                       ... on
Quadrupole Moment Calculation                   ... off
Polarizability Calculation                      ... off
GBWName                                         ... orca6.gbw
Electron density file                           ... orca6.scfp
The origin for moment calculation is the CENTER OF MASS  = ( 0.010993,  0.106042  0.135958)

-------------
DIPOLE MOMENT
-------------
                                X             Y             Z
Electronic contribution:      0.12441       1.16613      -0.14452
Nuclear contribution   :     -0.11915      -1.14937       0.14170
                        -----------------------------------------
Total Dipole Moment    :      0.00526       0.01676      -0.00283
                        -----------------------------------------
Magnitude (a.u.)       :      0.01779
Magnitude (Debye)      :      0.04522



--------------------
Rotational spectrum 
--------------------
 
Rotational constants in cm-1:     0.288392     0.044463     0.041321 
Rotational constants in MHz :  8645.760991  1332.969280  1238.780563 

 Dipole components along the rotational axes: 
x,y,z [a.u.] :     0.008029     0.015753    -0.001959 
x,y,z [Debye]:     0.020408     0.040041    -0.004979 

 

Timings for individual modules:

Sum of individual times         ...     5243.152 sec (=  87.386 min)
GTO integral calculation        ...      135.340 sec (=   2.256 min)   2.6 %
SCF iterations                  ...     4843.225 sec (=  80.720 min)  92.4 %
SCF Gradient evaluation         ...      192.054 sec (=   3.201 min)   3.7 %
Geometry relaxation             ...       72.533 sec (=   1.209 min)   1.4 %
                             ****ORCA TERMINATED NORMALLY****
TOTAL RUN TIME: 0 days 1 hours 30 minutes 37 seconds 780 msec
