
                                 *****************
                                 * O   R   C   A *
                                 *****************

           --- An Ab Initio, DFT and Semiempirical electronic structure package ---

                  #######################################################
                  #                        -***-                        #
                  #          Department of theory and spectroscopy      #
                  #               Directorship: Frank Neese             #
                  #        Max Planck Institute fuer Kohlenforschung    #
                  #                Kaiser Wilhelm Platz 1               #
                  #                 D-45470 Muelheim/Ruhr               #
                  #                      Germany                        #
                  #                                                     #
                  #                  All rights reserved                #
                  #                        -***-                        #
                  #######################################################


                         Program Version 4.2.1 -  RELEASE  -


 With contributions from (in alphabetic order):
   Daniel Aravena         : Magnetic Suceptibility
   Michael Atanasov       : Ab Initio Ligand Field Theory (pilot matlab implementation)
   Alexander A. Auer      : GIAO ZORA, VPT2
   Ute Becker             : Parallelization
   Giovanni Bistoni       : ED, misc. LED, open-shell LED, HFLD
   Martin Brehm           : Molecular dynamics
   Dmytro Bykov           : SCF Hessian
   Vijay G. Chilkuri      : MRCI spin determinant printing, contributions to CSF-ICE
   Dipayan Datta          : RHF DLPNO-CCSD density
   Achintya Kumar Dutta   : EOM-CC, STEOM-CC
   Dmitry Ganyushin       : Spin-Orbit,Spin-Spin,Magnetic field MRCI
   Miquel Garcia          : C-PCM Hessian, Gaussian charge scheme
   Yang Guo               : DLPNO-NEVPT2, CIM, IAO-localization
   Andreas Hansen         : Spin unrestricted coupled pair/coupled cluster methods
   Benjamin Helmich-Paris : CASSCF linear response (MC-RPA)
   Lee Huntington         : MR-EOM, pCC
   Robert Izsak           : Overlap fitted RIJCOSX, COSX-SCS-MP3, EOM
   Christian Kollmar      : KDIIS, OOCD, Brueckner-CCSD(T), CCSD density
   Simone Kossmann        : Meta GGA functionals, TD-DFT gradient, OOMP2, MP2 Hessian
   Martin Krupicka        : AUTO-CI
   Lucas Lang             : DCDCAS
   Dagmar Lenk            : GEPOL surface, SMD
   Dimitrios Liakos       : Extrapolation schemes; Compound Job, initial MDCI parallelization
   Dimitrios Manganas     : Further ROCIS development; embedding schemes
   Dimitrios Pantazis     : SARC Basis sets
   Taras Petrenko         : DFT Hessian,TD-DFT gradient, ASA, ECA, R-Raman, ABS, FL, XAS/XES, NRVS
   Peter Pinski           : DLPNO-MP2, DLPNO-MP2 Gradient
   Christoph Reimann      : Effective Core Potentials
   Marius Retegan         : Local ZFS, SOC
   Christoph Riplinger    : Optimizer, TS searches, QM/MM, DLPNO-CCSD(T), (RO)-DLPNO pert. Triples
   Tobias Risthaus        : Range-separated hybrids, TD-DFT gradient, RPA, STAB
   Michael Roemelt        : Original ROCIS implementation
   Masaaki Saitow         : Open-shell DLPNO-CCSD energy and density
   Barbara Sandhoefer     : DKH picture change effects
   Avijit Sen             : IP-ROCIS
   Kantharuban Sivalingam : CASSCF convergence, NEVPT2, FIC-MRCI
   Bernardo de Souza      : ESD, SOC TD-DFT
   Georgi Stoychev        : AutoAux, RI-MP2 NMR
   Willem Van den Heuvel  : Paramagnetic NMR
   Boris Wezisla          : Elementary symmetry handling
   Frank Wennmohs         : Technical directorship


 We gratefully acknowledge several colleagues who have allowed us to
 interface, adapt or use parts of their codes:
   Stefan Grimme, W. Hujo, H. Kruse,             : VdW corrections, initial TS optimization,
                  C. Bannwarth                     DFT functionals, gCP, sTDA/sTD-DF
   Ed Valeev, F. Pavosevic, A. Kumar             : LibInt (2-el integral package), F12 methods
   Garnet Chan, S. Sharma, J. Yang, R. Olivares  : DMRG
   Ulf Ekstrom                                   : XCFun DFT Library
   Mihaly Kallay                                 : mrcc  (arbitrary order and MRCC methods)
   Andreas Klamt, Michael Diedenhofen            : otool_cosmo (COSMO solvation model)
   Jiri Pittner, Ondrej Demel                    : Mk-CCSD
   Frank Weinhold                                : gennbo (NPA and NBO analysis)
   Christopher J. Cramer and Donald G. Truhlar   : smd solvation model
   Lars Goerigk                                  : TD-DFT with DH, B97 family of functionals
   V. Asgeirsson, H. Jonsson                     : NEB implementation
   FAccTs GmbH                                   : IRC, NEB, NEB-TS, Multilevel, MM, QM/MM, CI optimization
   S Lehtola, MJT Oliveira, MAL Marques          : LibXC Library


 Your calculation uses the libint2 library for the computation of 2-el integrals
 For citations please refer to: http://libint.valeyev.net

 Your ORCA version has been built with support for libXC version: 4.2.3
 For citations please refer to: https://tddft.org/programs/libxc/

 This ORCA versions uses:
   CBLAS   interface :  Fast vector & matrix operations
   LAPACKE interface :  Fast linear algebra routines
   SCALAPACK package :  Parallel linear algebra routines


Your calculation utilizes the atom-pairwise dispersion correction
with the Becke-Johnson damping scheme (D3BJ)
Cite in your paper:
S.Grimme, S.Ehrlich, L.Goerigk, J Comput Chem, (2011), 32, 1456–1465 
S.Grimme, J.Antony, S.Ehrlich and H.Krieg, J.Chem.Phys., 132, (2010), 154104 
   

----- Orbital basis set information -----
Your calculation utilizes the basis: def2-SV(P)
   F. Weigend and R. Ahlrichs, Phys. Chem. Chem. Phys. 7, 3297 (2005).

----- AuxJ basis set information -----
Your calculation utilizes the auxiliary basis: def2/J
   F. Weigend, Phys. Chem. Chem. Phys. 8, 1057 (2006).

================================================================================
                                        WARNINGS
                       Please study these warnings very carefully!
================================================================================


WARNING: Geometry Optimization
  ===> : Switching off AutoStart
         For restart on a previous wavefunction, please use MOREAD

INFO   : the flag for use of LIBINT has been found!

================================================================================
                                       INPUT FILE
================================================================================
NAME = orca3.inp
|  1> ! UKS B3LYP def2-SV(P) def2/J D3BJ Opt
|  2> %scf Convergence VeryTight
|  3> SmearTemp 2000
|  4> maxiter 500
|  5> end
|  6> *xyz 0 1
|  7> C -4.534893 0.808033 -0.096817
|  8> C -3.820418 -0.062913 0.893801
|  9> C -2.477007 -0.539366 0.430264
| 10> C -1.630901 0.525773 -0.19728
| 11> C -0.543477 -0.15648 -1.019485
| 12> C 0.268027 -1.11119 -0.174302
| 13> C 1.744378 -1.037566 -0.472052
| 14> C 2.48297 -0.107172 0.46975
| 15> C 3.593673 0.528715 -0.357859
| 16> C 4.859733 0.688518 0.460817
| 17> H -4.229849 1.873541 0.018542
| 18> H -4.470941 0.460449 -1.137442
| 19> H -5.618573 0.789361 0.184489
| 20> H -4.459797 -0.968164 1.052124
| 21> H -3.751145 0.472895 1.852697
| 22> H -2.565404 -1.377581 -0.278986
| 23> H -1.939276 -0.906834 1.340908
| 24> H -2.181431 1.204863 -0.864888
| 25> H -1.094886 1.099526 0.596528
| 26> H -1.08402 -0.695843 -1.838165
| 27> H 0.127669 0.572694 -1.509149
| 28> H 0.047968 -0.983482 0.909852
| 29> H -0.057606 -2.144449 -0.451272
| 30> H 2.228798 -2.038494 -0.360167
| 31> H 1.846027 -0.704605 -1.528129
| 32> H 2.934536 -0.656834 1.33208
| 33> H 1.821306 0.674729 0.869492
| 34> H 3.83557 -0.058153 -1.254406
| 35> H 3.220701 1.530265 -0.685825
| 36> H 5.729002 0.771775 -0.220203
| 37> H 4.742698 1.647853 1.020381
| 38> H 4.976569 -0.099863 1.224996
| 39> *
| 40> 
| 41>                          ****END OF INPUT****
================================================================================

                       *****************************
                       * Geometry Optimization Run *
                       *****************************

Geometry optimization settings:
Update method            Update   .... BFGS
Choice of coordinates    CoordSys .... Z-matrix Internals
Initial Hessian          InHess   .... Almoef's Model

Convergence Tolerances:
Energy Change            TolE     ....  5.0000e-06 Eh
Max. Gradient            TolMAXG  ....  3.0000e-04 Eh/bohr
RMS Gradient             TolRMSG  ....  1.0000e-04 Eh/bohr
Max. Displacement        TolMAXD  ....  4.0000e-03 bohr
RMS Displacement         TolRMSD  ....  2.0000e-03 bohr
Strict Convergence                ....  False
------------------------------------------------------------------------------
                        ORCA OPTIMIZATION COORDINATE SETUP
------------------------------------------------------------------------------

The optimization will be done in new redundant internal coordinates
Making redundant internal coordinates   ...  (new redundants) done
Evaluating the initial hessian          ...  (Almloef) done
Evaluating the coordinates              ...  done
Calculating the B-matrix                .... done
Calculating the G-matrix                .... done
Diagonalizing the G-matrix              .... done
Small eigenvalue found = 5.392e-03
Small eigenvalue found = 6.226e-03
Small eigenvalue found = 1.539e-02
Small eigenvalue found = 2.333e-02
Small eigenvalue found = 2.799e-02
The first mode is                       ....   82
The number of degrees of freedom        ....   90

    -----------------------------------------------------------------
                    Redundant Internal Coordinates


    -----------------------------------------------------------------
         Definition                    Initial Value    Approx d2E/dq
    -----------------------------------------------------------------
      1. B(C   1,C   0)                  1.5001         0.416924   
      2. B(C   2,C   1)                  1.4989         0.418827   
      3. B(C   3,C   2)                  1.4981         0.420061   
      4. B(C   4,C   3)                  1.5245         0.381254   
      5. B(C   5,C   4)                  1.5114         0.399986   
      6. B(C   6,C   5)                  1.5079         0.405206   
      7. B(C   7,C   6)                  1.5160         0.393345   
      8. B(C   8,C   7)                  1.5241         0.381728   
      9. B(C   9,C   8)                  1.5161         0.393091   
     10. B(H  10,C   0)                  1.1143         0.329346   
     11. B(H  11,C   0)                  1.0990         0.348387   
     12. B(H  12,C   0)                  1.1198         0.322817   
     13. B(H  13,C   1)                  1.1195         0.323078   
     14. B(H  14,C   1)                  1.1006         0.346318   
     15. B(H  15,C   2)                  1.1016         0.345117   
     16. B(H  16,C   2)                  1.1196         0.323020   
     17. B(H  17,C   3)                  1.1000         0.347142   
     18. B(H  18,C   3)                  1.1165         0.326662   
     19. B(H  19,C   4)                  1.1195         0.323086   
     20. B(H  20,C   4)                  1.1054         0.340297   
     21. B(H  21,C   5)                  1.1136         0.330184   
     22. B(H  22,C   5)                  1.1182         0.324661   
     23. B(H  23,C   6)                  1.1176         0.325374   
     24. B(H  24,C   6)                  1.1120         0.332169   
     25. B(H  25,C   7)                  1.1179         0.325045   
     26. B(H  26,C   7)                  1.0995         0.347714   
     27. B(H  27,C   8)                  1.0985         0.349016   
     28. B(H  28,C   8)                  1.1179         0.324982   
     29. B(H  29,C   9)                  1.1074         0.337795   
     30. B(H  30,C   9)                  1.1168         0.326395   
     31. B(H  31,C   9)                  1.1042         0.341850   
     32. A(C   1,C   0,H  12)          106.5803         0.324345   
     33. A(C   1,C   0,H  11)          114.4529         0.328441   
     34. A(H  11,C   0,H  12)          106.7933         0.284439   
     35. A(C   1,C   0,H  10)          110.8802         0.325414   
     36. A(H  10,C   0,H  11)          112.6140         0.285327   
     37. A(H  10,C   0,H  12)          104.7660         0.281969   
     38. A(H  13,C   1,H  14)          107.8413         0.284212   
     39. A(C   2,C   1,H  14)          111.5782         0.328365   
     40. A(C   0,C   1,H  14)          108.8240         0.328118   
     41. A(C   0,C   1,H  13)          106.9082         0.324388   
     42. A(C   0,C   1,C   2)          114.0298         0.377628   
     43. A(C   2,C   1,H  13)          107.3723         0.324631   
     44. A(C   3,C   2,H  15)          108.4596         0.328336   
     45. A(C   3,C   2,H  16)          107.6271         0.324778   
     46. A(C   1,C   2,H  16)          106.4554         0.324621   
     47. A(C   1,C   2,H  15)          111.6584         0.328176   
     48. A(C   1,C   2,C   3)          114.1893         0.378118   
     49. A(H  15,C   2,H  16)          108.2093         0.284050   
     50. A(C   4,C   3,H  18)          105.7228         0.320248   
     51. A(C   4,C   3,H  17)          107.8161         0.323452   
     52. A(C   2,C   3,C   4)          108.0958         0.372032   
     53. A(C   2,C   3,H  17)          114.2374         0.328653   
     54. A(C   2,C   3,H  18)          109.7969         0.325377   
     55. A(H  17,C   3,H  18)          110.7645         0.284805   
     56. A(C   5,C   4,H  19)          111.3367         0.322190   
     57. A(C   3,C   4,H  19)          105.4031         0.319672   
     58. A(C   3,C   4,C   5)          111.3515         0.368913   
     59. A(C   5,C   4,H  20)          109.7795         0.324945   
     60. A(C   3,C   4,H  20)          112.1350         0.322398   
     61. A(H  19,C   4,H  20)          106.6797         0.283439   
     62. A(C   4,C   5,C   6)          112.6084         0.372799   
     63. A(C   6,C   5,H  22)          106.3396         0.323133   
     64. A(C   4,C   5,H  22)          106.7873         0.322447   
     65. A(C   6,C   5,H  21)          112.3410         0.324029   
     66. A(C   4,C   5,H  21)          111.4613         0.323340   
     67. A(H  21,C   5,H  22)          106.8318         0.282329   
     68. A(C   5,C   6,C   7)          112.6012         0.371726   
     69. A(H  23,C   6,H  24)          108.8825         0.282688   
     70. A(C   7,C   6,H  24)          111.2057         0.322770   
     71. A(C   5,C   6,H  24)          106.9573         0.324348   
     72. A(C   7,C   6,H  23)          106.0386         0.321679   
     73. A(C   5,C   6,H  23)          111.1546         0.323249   
     74. A(C   6,C   7,C   8)          105.8884         0.367932   
     75. A(H  25,C   7,H  26)          108.1977         0.284658   
     76. A(C   8,C   7,H  26)          109.8320         0.323606   
     77. A(C   6,C   7,H  26)          111.6609         0.325203   
     78. A(C   8,C   7,H  25)          109.2471         0.320053   
     79. A(C   6,C   7,H  25)          111.9793         0.321626   
     80. A(H  27,C   8,H  28)          108.2194         0.284815   
     81. A(C   9,C   8,H  28)          110.0341         0.321582   
     82. A(C   7,C   8,H  28)          106.8551         0.320043   
     83. A(C   9,C   8,H  27)          108.2477         0.325368   
     84. A(C   7,C   8,H  27)          112.3804         0.323804   
     85. A(C   7,C   8,C   9)          111.0579         0.367891   
     86. A(H  30,C   9,H  31)          106.1213         0.284089   
     87. A(H  29,C   9,H  31)          113.3431         0.285611   
     88. A(C   8,C   9,H  31)          112.7565         0.324261   
     89. A(H  29,C   9,H  30)          109.0151         0.283563   
     90. A(C   8,C   9,H  30)          105.8782         0.321810   
     91. A(C   8,C   9,H  29)          109.3502         0.323626   
     92. D(C   2,C   1,C   0,H  11)     42.3873         0.013758   
     93. D(C   2,C   1,C   0,H  12)    160.1979         0.013758   
     94. D(H  13,C   1,C   0,H  11)    -76.1162         0.013758   
     95. D(H  14,C   1,C   0,H  11)    167.6559         0.013758   
     96. D(H  13,C   1,C   0,H  10)    155.1600         0.013758   
     97. D(C   2,C   1,C   0,H  10)    -86.3365         0.013758   
     98. D(H  14,C   1,C   0,H  12)    -74.5335         0.013758   
     99. D(H  14,C   1,C   0,H  10)     38.9321         0.013758   
    100. D(H  13,C   1,C   0,H  12)     41.6944         0.013758   
    101. D(C   3,C   2,C   1,H  13)    163.4169         0.013881   
    102. D(C   3,C   2,C   1,H  14)    -78.6171         0.013881   
    103. D(H  15,C   2,C   1,H  13)     39.9223         0.013881   
    104. D(H  15,C   2,C   1,H  14)    157.8882         0.013881   
    105. D(C   3,C   2,C   1,C   0)     45.1785         0.013881   
    106. D(H  16,C   2,C   1,H  13)    -77.9744         0.013881   
    107. D(H  16,C   2,C   1,H  14)     39.9915         0.013881   
    108. D(H  16,C   2,C   1,C   0)    163.7872         0.013881   
    109. D(H  15,C   2,C   1,C   0)    -78.3161         0.013881   
    110. D(H  18,C   3,C   2,C   1)     83.8658         0.013961   
    111. D(H  17,C   3,C   2,H  16)   -159.1942         0.013961   
    112. D(H  18,C   3,C   2,H  15)   -150.9302         0.013961   
    113. D(H  17,C   3,C   2,H  15)     83.9508         0.013961   
    114. D(C   4,C   3,C   2,H  15)    -36.0567         0.013961   
    115. D(H  17,C   3,C   2,C   1)    -41.2533         0.013961   
    116. D(H  18,C   3,C   2,H  16)    -34.0751         0.013961   
    117. D(C   4,C   3,C   2,H  16)     80.7983         0.013961   
    118. D(C   4,C   3,C   2,C   1)   -161.2607         0.013961   
    119. D(C   5,C   4,C   3,H  18)     61.3824         0.011581   
    120. D(C   5,C   4,C   3,H  17)    179.8938         0.011581   
    121. D(H  19,C   4,C   3,C   2)     64.7146         0.011581   
    122. D(C   5,C   4,C   3,C   2)    -56.1437         0.011581   
    123. D(H  20,C   4,C   3,H  18)    -62.0713         0.011581   
    124. D(H  20,C   4,C   3,H  17)     56.4401         0.011581   
    125. D(H  20,C   4,C   3,C   2)   -179.5974         0.011581   
    126. D(H  19,C   4,C   3,H  18)   -177.7593         0.011581   
    127. D(H  19,C   4,C   3,H  17)    -59.2479         0.011581   
    128. D(H  22,C   5,C   4,H  20)   -129.9838         0.012694   
    129. D(H  22,C   5,C   4,H  19)    -12.0833         0.012694   
    130. D(H  22,C   5,C   4,C   3)    105.2308         0.012694   
    131. D(H  21,C   5,C   4,H  20)    113.6835         0.012694   
    132. D(H  21,C   5,C   4,H  19)   -128.4160         0.012694   
    133. D(H  21,C   5,C   4,C   3)    -11.1019         0.012694   
    134. D(C   6,C   5,C   4,H  20)    -13.6281         0.012694   
    135. D(C   6,C   5,C   4,H  19)    104.2723         0.012694   
    136. D(C   6,C   5,C   4,C   3)   -138.4135         0.012694   
    137. D(H  24,C   6,C   5,H  22)     89.1269         0.013016   
    138. D(H  24,C   6,C   5,H  21)   -154.3395         0.013016   
    139. D(H  24,C   6,C   5,C   4)    -27.4959         0.013016   
    140. D(H  23,C   6,C   5,H  22)    -29.6093         0.013016   
    141. D(H  23,C   6,C   5,H  21)     86.9243         0.013016   
    142. D(H  23,C   6,C   5,C   4)   -146.2321         0.013016   
    143. D(C   7,C   6,C   5,H  22)   -148.4241         0.013016   
    144. D(C   7,C   6,C   5,H  21)    -31.8905         0.013016   
    145. D(C   7,C   6,C   5,C   4)     94.9530         0.013016   
    146. D(H  26,C   7,C   6,H  23)   -148.2256         0.012292   
    147. D(H  26,C   7,C   6,C   5)    -26.4624         0.012292   
    148. D(H  25,C   7,C   6,H  24)   -144.9265         0.012292   
    149. D(H  25,C   7,C   6,H  23)    -26.7149         0.012292   
    150. D(H  25,C   7,C   6,C   5)     95.0484         0.012292   
    151. D(C   8,C   7,C   6,H  24)    -25.9480         0.012292   
    152. D(C   8,C   7,C   6,H  23)     92.2636         0.012292   
    153. D(H  26,C   7,C   6,H  24)     93.5628         0.012292   
    154. D(C   8,C   7,C   6,C   5)   -145.9731         0.012292   
    155. D(H  28,C   8,C   7,H  26)    -22.8595         0.011608   
    156. D(H  28,C   8,C   7,C   6)     97.8461         0.011608   
    157. D(H  27,C   8,C   7,H  26)   -141.4180         0.011608   
    158. D(H  27,C   8,C   7,H  25)    100.0554         0.011608   
    159. D(H  27,C   8,C   7,C   6)    -20.7125         0.011608   
    160. D(C   9,C   8,C   7,H  26)     97.1552         0.011608   
    161. D(H  28,C   8,C   7,H  25)   -141.3860         0.011608   
    162. D(C   9,C   8,C   7,H  25)    -21.3713         0.011608   
    163. D(C   9,C   8,C   7,C   6)   -142.1392         0.011608   
    164. D(H  31,C   9,C   8,H  28)    149.3734         0.012276   
    165. D(H  31,C   9,C   8,H  27)    -92.5506         0.012276   
    166. D(H  31,C   9,C   8,C   7)     31.2670         0.012276   
    167. D(H  30,C   9,C   8,H  28)     33.7553         0.012276   
    168. D(H  30,C   9,C   8,H  27)    151.8313         0.012276   
    169. D(H  30,C   9,C   8,C   7)    -84.3511         0.012276   
    170. D(H  29,C   9,C   8,H  28)    -83.5618         0.012276   
    171. D(H  29,C   9,C   8,H  27)     34.5142         0.012276   
    172. D(H  29,C   9,C   8,C   7)    158.3318         0.012276   
    -----------------------------------------------------------------

Number of atoms                         .... 32
Number of degrees of freedom            .... 172

Time needed for optimization step       :     3.84 sec

         *************************************************************
         *                GEOMETRY OPTIMIZATION CYCLE   1            *
         *************************************************************
---------------------------------
CARTESIAN COORDINATES (ANGSTROEM)
---------------------------------
  C     -4.534893    0.808033   -0.096817
  C     -3.820418   -0.062913    0.893801
  C     -2.477007   -0.539366    0.430264
  C     -1.630901    0.525773   -0.197280
  C     -0.543477   -0.156480   -1.019485
  C      0.268027   -1.111190   -0.174302
  C      1.744378   -1.037566   -0.472052
  C      2.482970   -0.107172    0.469750
  C      3.593673    0.528715   -0.357859
  C      4.859733    0.688518    0.460817
  H     -4.229849    1.873541    0.018542
  H     -4.470941    0.460449   -1.137442
  H     -5.618573    0.789361    0.184489
  H     -4.459797   -0.968164    1.052124
  H     -3.751145    0.472895    1.852697
  H     -2.565404   -1.377581   -0.278986
  H     -1.939276   -0.906834    1.340908
  H     -2.181431    1.204863   -0.864888
  H     -1.094886    1.099526    0.596528
  H     -1.084020   -0.695843   -1.838165
  H      0.127669    0.572694   -1.509149
  H      0.047968   -0.983482    0.909852
  H     -0.057606   -2.144449   -0.451272
  H      2.228798   -2.038494   -0.360167
  H      1.846027   -0.704605   -1.528129
  H      2.934536   -0.656834    1.332080
  H      1.821306    0.674729    0.869492
  H      3.835570   -0.058153   -1.254406
  H      3.220701    1.530265   -0.685825
  H      5.729002    0.771775   -0.220203
  H      4.742698    1.647853    1.020381
  H      4.976569   -0.099863    1.224996

----------------------------
CARTESIAN COORDINATES (A.U.)
----------------------------
  NO LB      ZA    FRAG     MASS         X           Y           Z
   0 C     6.0000    0    12.011   -8.569706    1.526961   -0.182958
   1 C     6.0000    0    12.011   -7.219544   -0.118888    1.689039
   2 C     6.0000    0    12.011   -4.680865   -1.019254    0.813081
   3 C     6.0000    0    12.011   -3.081956    0.993567   -0.372805
   4 C     6.0000    0    12.011   -1.027023   -0.295704   -1.926547
   5 C     6.0000    0    12.011    0.506498   -2.099845   -0.329383
   6 C     6.0000    0    12.011    3.296397   -1.960716   -0.892049
   7 C     6.0000    0    12.011    4.692133   -0.202526    0.887699
   8 C     6.0000    0    12.011    6.791058    0.999127   -0.676256
   9 C     6.0000    0    12.011    9.183564    1.301110    0.870818
  10 H     1.0000    0     1.008   -7.993256    3.540479    0.035039
  11 H     1.0000    0     1.008   -8.448854    0.870123   -2.149454
  12 H     1.0000    0     1.008  -10.617564    1.491676    0.348634
  13 H     1.0000    0     1.008   -8.427795   -1.829565    1.988226
  14 H     1.0000    0     1.008   -7.088637    0.893642    3.501090
  15 H     1.0000    0     1.008   -4.847911   -2.603251   -0.527207
  16 H     1.0000    0     1.008   -3.664701   -1.713668    2.533949
  17 H     1.0000    0     1.008   -4.122307    2.276861   -1.634401
  18 H     1.0000    0     1.008   -2.069035    2.077803    1.127275
  19 H     1.0000    0     1.008   -2.048501   -1.314953   -3.473628
  20 H     1.0000    0     1.008    0.241259    1.082235   -2.851878
  21 H     1.0000    0     1.008    0.090646   -1.858512    1.719371
  22 H     1.0000    0     1.008   -0.108860   -4.052421   -0.852780
  23 H     1.0000    0     1.008    4.211818   -3.852195   -0.680617
  24 H     1.0000    0     1.008    3.488485   -1.331510   -2.887745
  25 H     1.0000    0     1.008    5.545469   -1.241236    2.517266
  26 H     1.0000    0     1.008    3.441770    1.275053    1.643102
  27 H     1.0000    0     1.008    7.248177   -0.109893   -2.370484
  28 H     1.0000    0     1.008    6.086243    2.891782   -1.296021
  29 H     1.0000    0     1.008   10.826245    1.458443   -0.416123
  30 H     1.0000    0     1.008    8.962400    3.113991    1.928241
  31 H     1.0000    0     1.008    9.404352   -0.188714    2.314907

--------------------------------
INTERNAL COORDINATES (ANGSTROEM)
--------------------------------
 C      0   0   0     0.000000000000     0.00000000     0.00000000
 C      1   0   0     1.500115156401     0.00000000     0.00000000
 C      2   1   0     1.498875287173   114.02981749     0.00000000
 C      3   2   1     1.498074739288   114.18928505    45.17851934
 C      4   3   2     1.524460945321   108.09583533   198.73927116
 C      5   4   3     1.511404720651   111.35152194   303.85633599
 C      6   5   4     1.507875270398   112.60841835   221.58649066
 C      7   6   5     1.515962448382   112.60122037    94.95303867
 C      8   7   6     1.524122727296   105.88844124   214.02687672
 C      9   8   7     1.516138290323   111.05790669   217.86083181
 H      1   2   3     1.114301053971   110.88021954   273.66346120
 H      1   2   3     1.099001767963   114.45293532    42.38725618
 H      1   2   3     1.119751781253   106.58029143   160.19786798
 H      2   1   3     1.119531621247   106.90816954   241.49655080
 H      2   1   3     1.100622778344   108.82395185   125.26860458
 H      3   2   1     1.101568871353   111.65839979   281.68386251
 H      3   2   1     1.119580213348   106.45543912   163.78716912
 H      4   3   2     1.099975886401   114.23743310   318.74674326
 H      4   3   2     1.116528426014   109.79691036    83.86579949
 H      5   4   3     1.119524954174   105.40307042    64.71464651
 H      5   4   3     1.105396991351   112.13504278   180.40260205
 H      6   5   4     1.113609084222   111.46130709   348.89809494
 H      6   5   4     1.118200962560   106.78726854   105.23081905
 H      7   6   5     1.117603619719   111.15462946   213.76788892
 H      7   6   5     1.111977597189   106.95726638   332.50405625
 H      8   7   6     1.117878882303   111.97933383    95.04839683
 H      8   7   6     1.099528121178   111.66094371   333.53763075
 H      9   8   7     1.098510232652   112.38044997   339.28754866
 H      9   8   7     1.117932114415   106.85507669    97.84609821
 H     10   9   8     1.107406232062   109.35024170   158.33180357
 H     10   9   8     1.116750958605   105.87815597   275.64889506
 H     10   9   8     1.104157957947   112.75649039    31.26702111

---------------------------
INTERNAL COORDINATES (A.U.)
---------------------------
 C      0   0   0     0.000000000000     0.00000000     0.00000000
 C      1   0   0     2.834806814943     0.00000000     0.00000000
 C      2   1   0     2.832463801660   114.02981749     0.00000000
 C      3   2   1     2.830950985400   114.18928505    45.17851934
 C      4   3   2     2.880813688516   108.09583533   198.73927116
 C      5   4   3     2.856140999545   111.35152194   303.85633599
 C      6   5   4     2.849471305164   112.60841835   221.58649066
 C      7   6   5     2.864753856750   112.60122037    94.95303867
 C      8   7   6     2.880174549074   105.88844124   214.02687672
 C      9   8   7     2.865086149863   111.05790669   217.86083181
 H      1   2   3     2.105723822745   110.88021954   273.66346120
 H      1   2   3     2.076812362145   114.45293532    42.38725618
 H      1   2   3     2.116024204539   106.58029143   160.19786798
 H      2   1   3     2.115608162421   106.90816954   241.49655080
 H      2   1   3     2.079875627825   108.82395185   125.26860458
 H      3   2   1     2.081663484510   111.65839979   281.68386251
 H      3   2   1     2.115699988185   106.45543912   163.78716912
 H      4   3   2     2.078653179215   114.23743310   318.74674326
 H      4   3   2     2.109932945905   109.79691036    83.86579949
 H      5   4   3     2.115595563479   105.40307042    64.71464651
 H      5   4   3     2.088897582914   112.13504278   180.40260205
 H      6   5   4     2.104416189426   111.46130709   348.89809494
 H      6   5   4     2.113093581925   106.78726854   105.23081905
 H      7   6   5     2.111964767548   111.15462946   213.76788892
 H      7   6   5     2.101333125744   106.95726638   332.50405625
 H      8   7   6     2.112484938447   111.97933383    95.04839683
 H      8   7   6     2.077807025571   111.66094371   333.53763075
 H      9   8   7     2.075883495023   112.38044997   339.28754866
 H      9   8   7     2.112585532560   106.85507669    97.84609821
 H     10   9   8     2.092694497595   109.35024170   158.33180357
 H     10   9   8     2.110353471558   105.87815597   275.64889506
 H     10   9   8     2.086556149110   112.75649039    31.26702111

---------------------
BASIS SET INFORMATION
---------------------
There are 2 groups of distinct atoms

 Group   1 Type C   : 7s4p1d contracted to 3s2p1d pattern {511/31/1}
 Group   2 Type H   : 4s contracted to 2s pattern {31}

Atom   0C    basis set group =>   1
Atom   1C    basis set group =>   1
Atom   2C    basis set group =>   1
Atom   3C    basis set group =>   1
Atom   4C    basis set group =>   1
Atom   5C    basis set group =>   1
Atom   6C    basis set group =>   1
Atom   7C    basis set group =>   1
Atom   8C    basis set group =>   1
Atom   9C    basis set group =>   1
Atom  10H    basis set group =>   2
Atom  11H    basis set group =>   2
Atom  12H    basis set group =>   2
Atom  13H    basis set group =>   2
Atom  14H    basis set group =>   2
Atom  15H    basis set group =>   2
Atom  16H    basis set group =>   2
Atom  17H    basis set group =>   2
Atom  18H    basis set group =>   2
Atom  19H    basis set group =>   2
Atom  20H    basis set group =>   2
Atom  21H    basis set group =>   2
Atom  22H    basis set group =>   2
Atom  23H    basis set group =>   2
Atom  24H    basis set group =>   2
Atom  25H    basis set group =>   2
Atom  26H    basis set group =>   2
Atom  27H    basis set group =>   2
Atom  28H    basis set group =>   2
Atom  29H    basis set group =>   2
Atom  30H    basis set group =>   2
Atom  31H    basis set group =>   2
---------------------------------
AUXILIARY/J BASIS SET INFORMATION
---------------------------------
There are 2 groups of distinct atoms

 Group   1 Type C   : 12s5p4d2f1g contracted to 6s4p3d1f1g pattern {711111/2111/211/2/1}
 Group   2 Type H   : 5s2p1d contracted to 3s1p1d pattern {311/2/1}

Atom   0C    basis set group =>   1
Atom   1C    basis set group =>   1
Atom   2C    basis set group =>   1
Atom   3C    basis set group =>   1
Atom   4C    basis set group =>   1
Atom   5C    basis set group =>   1
Atom   6C    basis set group =>   1
Atom   7C    basis set group =>   1
Atom   8C    basis set group =>   1
Atom   9C    basis set group =>   1
Atom  10H    basis set group =>   2
Atom  11H    basis set group =>   2
Atom  12H    basis set group =>   2
Atom  13H    basis set group =>   2
Atom  14H    basis set group =>   2
Atom  15H    basis set group =>   2
Atom  16H    basis set group =>   2
Atom  17H    basis set group =>   2
Atom  18H    basis set group =>   2
Atom  19H    basis set group =>   2
Atom  20H    basis set group =>   2
Atom  21H    basis set group =>   2
Atom  22H    basis set group =>   2
Atom  23H    basis set group =>   2
Atom  24H    basis set group =>   2
Atom  25H    basis set group =>   2
Atom  26H    basis set group =>   2
Atom  27H    basis set group =>   2
Atom  28H    basis set group =>   2
Atom  29H    basis set group =>   2
Atom  30H    basis set group =>   2
Atom  31H    basis set group =>   2
------------------------------------------------------------------------------
                           ORCA GTO INTEGRAL CALCULATION
------------------------------------------------------------------------------

                         BASIS SET STATISTICS AND STARTUP INFO

 # of primitive gaussian shells          ...  208
 # of primitive gaussian functions       ...  328
 # of contracted shells                  ...  104
 # of contracted basis functions         ...  184
 Highest angular momentum                ...    2
 Maximum contraction depth               ...    5
 Integral package used                   ... LIBINT
 Integral threshhold            Thresh   ...  1.000e-12
 Primitive cut-off              TCut     ...  1.000e-14


------------------------------ INTEGRAL EVALUATION ----------------------------


 * One electron integrals 
 Pre-screening matrix                    ... done
 Shell pair data                         ... done (   0.002 sec)

-------------------------------------------------------------------------------
                                 ORCA SCF
-------------------------------------------------------------------------------

------------
SCF SETTINGS
------------
Hamiltonian:
 Density Functional     Method          .... DFT(GTOs)
 Exchange Functional    Exchange        .... B88
   X-Alpha parameter    XAlpha          ....  0.666667
   Becke's b parameter  XBeta           ....  0.004200
 Correlation Functional Correlation     .... LYP
 LDA part of GGA corr.  LDAOpt          .... VWN-5
 Gradients option       PostSCFGGA      .... off
 Hybrid DFT is turned on
   Fraction HF Exchange ScalHFX         ....  0.200000
   Scaling of DF-GGA-X  ScalDFX         ....  0.720000
   Scaling of DF-GGA-C  ScalDFC         ....  0.810000
   Scaling of DF-LDA-C  ScalLDAC        ....  1.000000
   Perturbative correction              ....  0.000000
   Density functional embedding theory  .... OFF
   NL short-range parameter             ....  4.800000


General Settings:
 Integral files         IntName         .... orca3
 Hartree-Fock type      HFTyp           .... UHF
 Total Charge           Charge          ....    0
 Multiplicity           Mult            ....    1
 Number of Electrons    NEL             ....   82
 Basis Dimension        Dim             ....  184
 Nuclear Repulsion      ENuc            ....    549.3554081697 Eh

Convergence Acceleration:
 DIIS                   CNVDIIS         .... on
   Start iteration      DIISMaxIt       ....    12
   Startup error        DIISStart       ....  0.200000
   # of expansion vecs  DIISMaxEq       ....     5
   Bias factor          DIISBfac        ....   1.050
   Max. coefficient     DIISMaxC        ....  10.000
 Newton-Raphson         CNVNR           .... off
 SOSCF                  CNVSOSCF        .... off
 Level Shifting         CNVShift        .... on
   Level shift para.    LevelShift      ....    0.2500
   Turn off err/grad.   ShiftErr        ....    0.0010
 Zerner damping         CNVZerner       .... off
 Static damping         CNVDamp         .... on
   Fraction old density DampFac         ....    0.7000
   Max. Damping (<1)    DampMax         ....    0.9800
   Min. Damping (>=0)   DampMin         ....    0.0000
   Turn off err/grad.   DampErr         ....    0.1000
 Fernandez-Rico         CNVRico         .... off

SCF Procedure:
 Maximum # iterations   MaxIter         ....   500
 SCF integral mode      SCFMode         .... Direct
   Integral package                     .... LIBINT
 Reset frequency        DirectResetFreq ....    20
 Integral Threshold     Thresh          ....  1.000e-12 Eh
 Primitive CutOff       TCut            ....  1.000e-14 Eh

Convergence Tolerance:
 Convergence Check Mode ConvCheckMode   .... Total+1el-Energy
 Convergence forced     ConvForced      .... 0
 Energy Change          TolE            ....  1.000e-09 Eh
 1-El. energy change                    ....  1.000e-06 Eh
 DIIS Error             TolErr          ....  1.000e-08


Diagonalization of the overlap matrix:
Smallest eigenvalue                        ... 1.291e-03
Time for diagonalization                   ...    0.003 sec
Threshold for overlap eigenvalues          ... 1.000e-08
Number of eigenvalues below threshold      ... 0
Time for construction of square roots      ...    7.145 sec
Total time needed                          ...    7.148 sec

-------------------
DFT GRID GENERATION
-------------------

General Integration Accuracy     IntAcc      ...  4.340
Radial Grid Type                 RadialGrid  ... Gauss-Chebyshev
Angular Grid (max. acc.)         AngularGrid ... Lebedev-110
Angular grid pruning method      GridPruning ... 3 (G Style)
Weight generation scheme         WeightScheme... Becke
Basis function cutoff            BFCut       ...    1.0000e-12
Integration weight cutoff        WCut        ...    1.0000e-14
Grids for H and He will be reduced by one unit

# of grid points (after initial pruning)     ...  34028 (   0.0 sec)
# of grid points (after weights+screening)   ...  30576 (   0.2 sec)
nearest neighbour list constructed           ...    0.0 sec
Grid point re-assignment to atoms done       ...    0.0 sec
Grid point division into batches done        ...    0.0 sec
Reduced shell lists constructed in    0.4 sec

Total number of grid points                  ...    30576
Total number of batches                      ...      495
Average number of points per batch           ...       61
Average number of grid points per atom       ...      956
Average number of shells per batch           ...    67.99 (65.37%)
Average number of basis functions per batch  ...   116.24 (63.17%)
Average number of large shells per batch     ...    50.80 (74.71%)
Average number of large basis fcns per batch ...    87.51 (75.29%)
Maximum spatial batch extension              ...  19.83, 26.32, 21.03 au
Average spatial batch extension              ...   3.12,  3.55,  3.58 au

Time for grid setup =    6.941 sec

------------------------------
INITIAL GUESS: MODEL POTENTIAL
------------------------------
Loading Hartree-Fock densities                     ... done
Calculating cut-offs                               ... done
Setting up the integral package                    ... done
Initializing the effective Hamiltonian             ... done
Starting the Coulomb interaction                   ... done (   0.2 sec)
Reading the grid                                   ... done
Mapping shells                                     ... done
Starting the XC term evaluation                    ... done (   0.4 sec)
  promolecular density results
     # of electrons  =     81.996501944
     EX              =    -57.985745893
     EC              =     -2.611266812
     EX+EC           =    -60.597012705
Transforming the Hamiltonian                       ... done (   0.0 sec)
Diagonalizing the Hamiltonian                      ... done (   0.0 sec)
Back transforming the eigenvectors                 ... done (   0.0 sec)
Now organizing SCF variables                       ... done
                      ------------------
                      INITIAL GUESS DONE (   7.7 sec)
                      ------------------
--------------
SCF ITERATIONS
--------------
ITER       Energy         Delta-E        Max-DP      RMS-DP      [F,P]     Damp
               ***  Starting incremental Fock matrix formation  ***
  0   -393.2649947809   0.000000000000 0.04210367  0.00143046  0.1723271 0.7000
  1   -393.4491131406  -0.184118359680 0.02595888  0.00101838  0.0898698 0.7000
                               ***Turning on DIIS***
  2   -393.5221566300  -0.073043489454 0.03594452  0.00167455  0.0337350 0.0000
  3   -393.6211177305  -0.098961100465 0.01734453  0.00068887  0.0492825 0.0000
  4   -393.6538764604  -0.032758729950 0.00365579  0.00020825  0.0111512 0.0000
  5   -393.6554888881  -0.001612427698 0.00123843  0.00007253  0.0020413 0.0000
  6   -393.6555835021  -0.000094613912 0.00063910  0.00003803  0.0008290 0.0000
  7   -393.6555912948  -0.000007792755 0.00022498  0.00000436  0.0004160 0.0000
  8   -393.6555920137  -0.000000718913 0.00004363  0.00000114  0.0000698 0.0000
  9   -393.6555920397  -0.000000026019 0.00001336  0.00000043  0.0000261 0.0000
 10   -393.6555920436  -0.000000003882 0.00000646  0.00000013  0.0000107 0.0000
 11   -393.6555920441  -0.000000000479 0.00000113  0.00000005  0.0000017 0.0000
 12   -393.6555920442  -0.000000000051 0.00000042  0.00000001  0.0000005 0.0000
 13   -393.6555920441   0.000000000065 0.00000014  0.00000000  0.0000003 0.0000
                 **** Energy Check signals convergence ****

 Fermi smearing  (ALPHA): E(HOMO(Eh)) = -0.282307 MUE = -0.117009 gap=   8.996 eV
 Fermi smearing   (BETA): E(HOMO(Eh)) = -0.282307 MUE = -0.117009 gap=   8.996 eV

N_FOD(alpha) =  0.000000
 N_FOD(beta) =  0.000000
       N_FOD =  0.000000

               *****************************************************
               *                     SUCCESS                       *
               *           SCF CONVERGED AFTER  14 CYCLES          *
               *****************************************************

Setting up the final grid:

General Integration Accuracy     IntAcc      ...  4.670
Radial Grid Type                 RadialGrid  ... Gauss-Chebyshev
Angular Grid (max. acc.)         AngularGrid ... Lebedev-302
Angular grid pruning method      GridPruning ... 3 (G Style)
Weight generation scheme         WeightScheme... Becke
Basis function cutoff            BFCut       ...    1.0000e-12
Integration weight cutoff        WCut        ...    1.0000e-14
Grids for H and He will be reduced by one unit

# of grid points (after initial pruning)     ... 136788 (   0.1 sec)
# of grid points (after weights+screening)   ... 120562 (   0.7 sec)
nearest neighbour list constructed           ...    0.0 sec
Grid point re-assignment to atoms done       ...    0.0 sec
Grid point division into batches done        ...    0.3 sec
Reduced shell lists constructed in    1.1 sec

Total number of grid points                  ...   120562
Total number of batches                      ...     1897
Average number of points per batch           ...       63
Average number of grid points per atom       ...     3768
Average number of shells per batch           ...    63.17 (60.74%)
Average number of basis functions per batch  ...   107.58 (58.47%)
Average number of large shells per batch     ...    46.65 (73.84%)
Average number of large basis fcns per batch ...    79.87 (74.24%)
Maximum spatial batch extension              ...  18.47, 18.78, 20.64 au
Average spatial batch extension              ...   2.12,  2.25,  2.30 au

Final grid set up in    4.3 sec
Final integration                            ... done (  17.9 sec)
Change in XC energy                          ...     0.000195557
Integrated number of electrons               ...    82.000274057
Previous integrated no of electrons          ...    82.004213251

----------------
TOTAL SCF ENERGY
----------------

Total Energy       :         -393.65539649 Eh          -10711.90792 eV

Components:
Nuclear Repulsion  :          549.35540817 Eh           14948.72063 eV
Electronic Energy  :         -943.01080466 Eh          -25660.62856 eV
One Electron Energy:        -1617.66616806 Eh          -44018.93431 eV
Two Electron Energy:          674.65536340 Eh           18358.30576 eV

Virial components:
Potential Energy   :         -783.39154215 Eh          -21317.16761 eV
Kinetic Energy     :          389.73614566 Eh           10605.25968 eV
Virial Ratio       :            2.01005616


DFT components:
N(Alpha)           :       41.000137028589 electrons
N(Beta)            :       41.000137028589 electrons
N(Total)           :       82.000274057177 electrons
E(X)               :      -47.193505604899 Eh       
E(C)               :       -3.090877522472 Eh       
E(XC)              :      -50.284383127371 Eh       
DFET-embed. en.    :        0.000000000000 Eh       

---------------
SCF CONVERGENCE
---------------

  Last Energy change         ...   -2.0577e-11  Tolerance :   1.0000e-09
  Last MAX-Density change    ...    2.7657e-08  Tolerance :   1.0000e-08
  Last RMS-Density change    ...    7.7735e-10  Tolerance :   1.0000e-09
  Last DIIS Error            ...    4.7590e-08  Tolerance :   1.0000e-08

             **** THE GBW FILE WAS UPDATED (orca3.gbw) ****
             **** DENSITY FILE WAS UPDATED (orca3.scfp) ****
             **** ENERGY FILE WAS UPDATED (orca3.en.tmp) ****
             **** THE GBW FILE WAS UPDATED (orca3.gbw) ****
             **** DENSITY FILE WAS UPDATED (orca3.scfp) ****
----------------
ORBITAL ENERGIES
----------------
                 SPIN UP ORBITALS
  NO   OCC          E(Eh)            E(eV) 
   0   1.0000     -10.166564      -276.6463 
   1   1.0000     -10.165348      -276.6132 
   2   1.0000     -10.164947      -276.6023 
   3   1.0000     -10.164173      -276.5812 
   4   1.0000     -10.164115      -276.5796 
   5   1.0000     -10.163686      -276.5680 
   6   1.0000     -10.163383      -276.5597 
   7   1.0000     -10.163226      -276.5554 
   8   1.0000     -10.162151      -276.5262 
   9   1.0000     -10.161279      -276.5025 
  10   1.0000      -0.814314       -22.1586 
  11   1.0000      -0.793829       -21.6012 
  12   1.0000      -0.762066       -20.7369 
  13   1.0000      -0.723220       -19.6798 
  14   1.0000      -0.675419       -18.3791 
  15   1.0000      -0.643360       -17.5067 
  16   1.0000      -0.594423       -16.1751 
  17   1.0000      -0.568155       -15.4603 
  18   1.0000      -0.565744       -15.3947 
  19   1.0000      -0.537548       -14.6274 
  20   1.0000      -0.477449       -12.9920 
  21   1.0000      -0.468816       -12.7571 
  22   1.0000      -0.454254       -12.3609 
  23   1.0000      -0.439297       -11.9539 
  24   1.0000      -0.432962       -11.7815 
  25   1.0000      -0.424543       -11.5524 
  26   1.0000      -0.401082       -10.9140 
  27   1.0000      -0.398626       -10.8472 
  28   1.0000      -0.393485       -10.7073 
  29   1.0000      -0.370661       -10.0862 
  30   1.0000      -0.361874        -9.8471 
  31   1.0000      -0.357761        -9.7352 
  32   1.0000      -0.344107        -9.3636 
  33   1.0000      -0.336917        -9.1680 
  34   1.0000      -0.331533        -9.0215 
  35   1.0000      -0.327129        -8.9016 
  36   1.0000      -0.316385        -8.6093 
  37   1.0000      -0.305846        -8.3225 
  38   1.0000      -0.304880        -8.2962 
  39   1.0000      -0.297932        -8.1071 
  40   1.0000      -0.282307        -7.6820 
  41   0.0000       0.048288         1.3140 
  42   0.0000       0.061116         1.6630 
  43   0.0000       0.066592         1.8121 
  44   0.0000       0.073829         2.0090 
  45   0.0000       0.079688         2.1684 
  46   0.0000       0.090028         2.4498 
  47   0.0000       0.091453         2.4886 
  48   0.0000       0.106191         2.8896 
  49   0.0000       0.117466         3.1964 
  50   0.0000       0.120207         3.2710 
  51   0.0000       0.128615         3.4998 
  52   0.0000       0.133710         3.6384 
  53   0.0000       0.138305         3.7635 
  54   0.0000       0.149536         4.0691 
  55   0.0000       0.156007         4.2452 
  56   0.0000       0.162649         4.4259 
  57   0.0000       0.166267         4.5244 
  58   0.0000       0.170307         4.6343 
  59   0.0000       0.188923         5.1409 
  60   0.0000       0.198825         5.4103 
  61   0.0000       0.206396         5.6163 
  62   0.0000       0.210296         5.7224 
  63   0.0000       0.235132         6.3983 
  64   0.0000       0.238200         6.4817 
  65   0.0000       0.245379         6.6771 
  66   0.0000       0.255940         6.9645 
  67   0.0000       0.265793         7.2326 
  68   0.0000       0.281255         7.6533 
  69   0.0000       0.281768         7.6673 
  70   0.0000       0.297444         8.0939 
  71   0.0000       0.313803         8.5390 
  72   0.0000       0.419143        11.4055 
  73   0.0000       0.423859        11.5338 
  74   0.0000       0.431122        11.7314 
  75   0.0000       0.436538        11.8788 
  76   0.0000       0.455814        12.4033 
  77   0.0000       0.459559        12.5052 
  78   0.0000       0.466621        12.6974 
  79   0.0000       0.473753        12.8915 
  80   0.0000       0.499798        13.6002 
  81   0.0000       0.509655        13.8684 
  82   0.0000       0.527582        14.3562 
  83   0.0000       0.543847        14.7988 
  84   0.0000       0.561758        15.2862 
  85   0.0000       0.596458        16.2305 
  86   0.0000       0.610541        16.6137 
  87   0.0000       0.623853        16.9759 
  88   0.0000       0.631097        17.1730 
  89   0.0000       0.637478        17.3467 
  90   0.0000       0.644237        17.5306 
  91   0.0000       0.656329        17.8596 
  92   0.0000       0.659486        17.9455 
  93   0.0000       0.666009        18.1230 
  94   0.0000       0.670812        18.2537 
  95   0.0000       0.676306        18.4032 
  96   0.0000       0.679337        18.4857 
  97   0.0000       0.683368        18.5954 
  98   0.0000       0.689314        18.7572 
  99   0.0000       0.696990        18.9661 
 100   0.0000       0.702827        19.1249 
 101   0.0000       0.704930        19.1821 
 102   0.0000       0.708852        19.2888 
 103   0.0000       0.710073        19.3221 
 104   0.0000       0.712522        19.3887 
 105   0.0000       0.720860        19.6156 
 106   0.0000       0.722447        19.6588 
 107   0.0000       0.723232        19.6801 
 108   0.0000       0.726918        19.7804 
 109   0.0000       0.729097        19.8397 
 110   0.0000       0.736244        20.0342 
 111   0.0000       0.737774        20.0759 
 112   0.0000       0.742337        20.2000 
 113   0.0000       0.748751        20.3746 
 114   0.0000       0.763061        20.7639 
 115   0.0000       0.768957        20.9244 
 116   0.0000       0.772489        21.0205 
 117   0.0000       0.780001        21.2249 
 118   0.0000       0.787899        21.4398 
 119   0.0000       0.791678        21.5427 
 120   0.0000       0.803298        21.8588 
 121   0.0000       0.847642        23.0655 
 122   0.0000       0.880031        23.9469 
 123   0.0000       0.916638        24.9430 
 124   0.0000       0.934200        25.4209 
 125   0.0000       0.967691        26.3322 
 126   0.0000       1.028607        27.9898 
 127   0.0000       1.054721        28.7004 
 128   0.0000       1.070254        29.1231 
 129   0.0000       1.097307        29.8592 
 130   0.0000       1.129701        30.7407 
 131   0.0000       1.168826        31.8054 
 132   0.0000       1.195092        32.5201 
 133   0.0000       1.200173        32.6584 
 134   0.0000       1.394782        37.9540 
 135   0.0000       1.419880        38.6369 
 136   0.0000       1.489841        40.5406 
 137   0.0000       1.534324        41.7511 
 138   0.0000       1.585389        43.1406 
 139   0.0000       1.685090        45.8536 
 140   0.0000       1.699961        46.2583 
 141   0.0000       1.745733        47.5038 
 142   0.0000       1.751506        47.6609 
 143   0.0000       1.801921        49.0328 
 144   0.0000       1.827821        49.7375 
 145   0.0000       1.840595        50.0851 
 146   0.0000       1.872893        50.9640 
 147   0.0000       1.894988        51.5652 
 148   0.0000       1.915062        52.1115 
 149   0.0000       1.933059        52.6012 
 150   0.0000       1.944049        52.9003 
 151   0.0000       1.945561        52.9414 
 152   0.0000       1.951536        53.1040 
 153   0.0000       1.963073        53.4179 
 154   0.0000       1.981305        53.9141 
 155   0.0000       1.997450        54.3534 
 156   0.0000       2.028767        55.2056 
 157   0.0000       2.043796        55.6145 
 158   0.0000       2.077492        56.5314 
 159   0.0000       2.118223        57.6398 
 160   0.0000       2.136531        58.1380 
 161   0.0000       2.147812        58.4449 
 162   0.0000       2.167994        58.9941 
 163   0.0000       2.228418        60.6383 
 164   0.0000       2.251633        61.2700 
 165   0.0000       2.266533        61.6755 
 166   0.0000       2.288028        62.2604 
 167   0.0000       2.301346        62.6228 
 168   0.0000       2.312864        62.9362 
 169   0.0000       2.330733        63.4225 
 170   0.0000       2.343245        63.7629 
 171   0.0000       2.361369        64.2561 
 172   0.0000       2.388979        65.0074 
 173   0.0000       2.405807        65.4653 
 174   0.0000       2.491469        67.7963 
 175   0.0000       2.511150        68.3319 
 176   0.0000       2.545975        69.2795 
 177   0.0000       2.590400        70.4884 
 178   0.0000       2.608126        70.9707 
 179   0.0000       2.673702        72.7551 
 180   0.0000       2.726449        74.1904 
 181   0.0000       2.745851        74.7184 
 182   0.0000       2.789494        75.9060 
 183   0.0000       2.830408        77.0193 

                 SPIN DOWN ORBITALS
  NO   OCC          E(Eh)            E(eV) 
   0   1.0000     -10.166564      -276.6463 
   1   1.0000     -10.165348      -276.6132 
   2   1.0000     -10.164947      -276.6023 
   3   1.0000     -10.164173      -276.5812 
   4   1.0000     -10.164115      -276.5796 
   5   1.0000     -10.163686      -276.5680 
   6   1.0000     -10.163383      -276.5597 
   7   1.0000     -10.163226      -276.5554 
   8   1.0000     -10.162151      -276.5262 
   9   1.0000     -10.161279      -276.5025 
  10   1.0000      -0.814314       -22.1586 
  11   1.0000      -0.793829       -21.6012 
  12   1.0000      -0.762066       -20.7369 
  13   1.0000      -0.723220       -19.6798 
  14   1.0000      -0.675419       -18.3791 
  15   1.0000      -0.643360       -17.5067 
  16   1.0000      -0.594423       -16.1751 
  17   1.0000      -0.568155       -15.4603 
  18   1.0000      -0.565744       -15.3947 
  19   1.0000      -0.537548       -14.6274 
  20   1.0000      -0.477449       -12.9920 
  21   1.0000      -0.468816       -12.7571 
  22   1.0000      -0.454254       -12.3609 
  23   1.0000      -0.439297       -11.9539 
  24   1.0000      -0.432962       -11.7815 
  25   1.0000      -0.424543       -11.5524 
  26   1.0000      -0.401082       -10.9140 
  27   1.0000      -0.398626       -10.8472 
  28   1.0000      -0.393485       -10.7073 
  29   1.0000      -0.370661       -10.0862 
  30   1.0000      -0.361874        -9.8471 
  31   1.0000      -0.357761        -9.7352 
  32   1.0000      -0.344107        -9.3636 
  33   1.0000      -0.336917        -9.1680 
  34   1.0000      -0.331533        -9.0215 
  35   1.0000      -0.327129        -8.9016 
  36   1.0000      -0.316385        -8.6093 
  37   1.0000      -0.305846        -8.3225 
  38   1.0000      -0.304880        -8.2962 
  39   1.0000      -0.297932        -8.1071 
  40   1.0000      -0.282307        -7.6820 
  41   0.0000       0.048288         1.3140 
  42   0.0000       0.061116         1.6630 
  43   0.0000       0.066592         1.8121 
  44   0.0000       0.073829         2.0090 
  45   0.0000       0.079688         2.1684 
  46   0.0000       0.090028         2.4498 
  47   0.0000       0.091453         2.4886 
  48   0.0000       0.106191         2.8896 
  49   0.0000       0.117466         3.1964 
  50   0.0000       0.120207         3.2710 
  51   0.0000       0.128615         3.4998 
  52   0.0000       0.133710         3.6384 
  53   0.0000       0.138305         3.7635 
  54   0.0000       0.149536         4.0691 
  55   0.0000       0.156007         4.2452 
  56   0.0000       0.162649         4.4259 
  57   0.0000       0.166267         4.5244 
  58   0.0000       0.170307         4.6343 
  59   0.0000       0.188923         5.1409 
  60   0.0000       0.198825         5.4103 
  61   0.0000       0.206396         5.6163 
  62   0.0000       0.210296         5.7224 
  63   0.0000       0.235132         6.3983 
  64   0.0000       0.238200         6.4817 
  65   0.0000       0.245379         6.6771 
  66   0.0000       0.255940         6.9645 
  67   0.0000       0.265793         7.2326 
  68   0.0000       0.281255         7.6533 
  69   0.0000       0.281768         7.6673 
  70   0.0000       0.297444         8.0939 
  71   0.0000       0.313803         8.5390 
  72   0.0000       0.419143        11.4055 
  73   0.0000       0.423859        11.5338 
  74   0.0000       0.431122        11.7314 
  75   0.0000       0.436538        11.8788 
  76   0.0000       0.455814        12.4033 
  77   0.0000       0.459559        12.5052 
  78   0.0000       0.466621        12.6974 
  79   0.0000       0.473753        12.8915 
  80   0.0000       0.499798        13.6002 
  81   0.0000       0.509655        13.8684 
  82   0.0000       0.527582        14.3562 
  83   0.0000       0.543847        14.7988 
  84   0.0000       0.561758        15.2862 
  85   0.0000       0.596458        16.2305 
  86   0.0000       0.610541        16.6137 
  87   0.0000       0.623853        16.9759 
  88   0.0000       0.631097        17.1730 
  89   0.0000       0.637478        17.3467 
  90   0.0000       0.644237        17.5306 
  91   0.0000       0.656329        17.8596 
  92   0.0000       0.659486        17.9455 
  93   0.0000       0.666009        18.1230 
  94   0.0000       0.670812        18.2537 
  95   0.0000       0.676306        18.4032 
  96   0.0000       0.679337        18.4857 
  97   0.0000       0.683368        18.5954 
  98   0.0000       0.689314        18.7572 
  99   0.0000       0.696990        18.9661 
 100   0.0000       0.702827        19.1249 
 101   0.0000       0.704930        19.1821 
 102   0.0000       0.708852        19.2888 
 103   0.0000       0.710073        19.3221 
 104   0.0000       0.712522        19.3887 
 105   0.0000       0.720860        19.6156 
 106   0.0000       0.722447        19.6588 
 107   0.0000       0.723232        19.6801 
 108   0.0000       0.726918        19.7804 
 109   0.0000       0.729097        19.8397 
 110   0.0000       0.736244        20.0342 
 111   0.0000       0.737774        20.0759 
 112   0.0000       0.742337        20.2000 
 113   0.0000       0.748751        20.3746 
 114   0.0000       0.763061        20.7639 
 115   0.0000       0.768957        20.9244 
 116   0.0000       0.772489        21.0205 
 117   0.0000       0.780001        21.2249 
 118   0.0000       0.787899        21.4398 
 119   0.0000       0.791678        21.5427 
 120   0.0000       0.803298        21.8588 
 121   0.0000       0.847642        23.0655 
 122   0.0000       0.880031        23.9469 
 123   0.0000       0.916638        24.9430 
 124   0.0000       0.934200        25.4209 
 125   0.0000       0.967691        26.3322 
 126   0.0000       1.028607        27.9898 
 127   0.0000       1.054721        28.7004 
 128   0.0000       1.070254        29.1231 
 129   0.0000       1.097307        29.8592 
 130   0.0000       1.129701        30.7407 
 131   0.0000       1.168826        31.8054 
 132   0.0000       1.195092        32.5201 
 133   0.0000       1.200173        32.6584 
 134   0.0000       1.394782        37.9540 
 135   0.0000       1.419880        38.6369 
 136   0.0000       1.489841        40.5406 
 137   0.0000       1.534324        41.7511 
 138   0.0000       1.585389        43.1406 
 139   0.0000       1.685090        45.8536 
 140   0.0000       1.699961        46.2583 
 141   0.0000       1.745733        47.5038 
 142   0.0000       1.751506        47.6609 
 143   0.0000       1.801921        49.0328 
 144   0.0000       1.827821        49.7375 
 145   0.0000       1.840595        50.0851 
 146   0.0000       1.872893        50.9640 
 147   0.0000       1.894988        51.5652 
 148   0.0000       1.915062        52.1115 
 149   0.0000       1.933059        52.6012 
 150   0.0000       1.944049        52.9003 
 151   0.0000       1.945561        52.9414 
 152   0.0000       1.951536        53.1040 
 153   0.0000       1.963073        53.4179 
 154   0.0000       1.981305        53.9141 
 155   0.0000       1.997450        54.3534 
 156   0.0000       2.028767        55.2056 
 157   0.0000       2.043796        55.6145 
 158   0.0000       2.077492        56.5314 
 159   0.0000       2.118223        57.6398 
 160   0.0000       2.136531        58.1380 
 161   0.0000       2.147812        58.4449 
 162   0.0000       2.167994        58.9941 
 163   0.0000       2.228418        60.6383 
 164   0.0000       2.251633        61.2700 
 165   0.0000       2.266533        61.6755 
 166   0.0000       2.288028        62.2604 
 167   0.0000       2.301346        62.6228 
 168   0.0000       2.312864        62.9362 
 169   0.0000       2.330733        63.4225 
 170   0.0000       2.343245        63.7629 
 171   0.0000       2.361369        64.2561 
 172   0.0000       2.388979        65.0074 
 173   0.0000       2.405807        65.4653 
 174   0.0000       2.491469        67.7963 
 175   0.0000       2.511150        68.3319 
 176   0.0000       2.545975        69.2795 
 177   0.0000       2.590400        70.4884 
 178   0.0000       2.608126        70.9707 
 179   0.0000       2.673702        72.7551 
 180   0.0000       2.726449        74.1904 
 181   0.0000       2.745851        74.7184 
 182   0.0000       2.789494        75.9060 
 183   0.0000       2.830408        77.0193 

                    ********************************
                    * MULLIKEN POPULATION ANALYSIS *
                    ********************************

------------------------------------------
FOD BASED MULLIKEN REDUCED ORBITAL CHARGES
------------------------------------------
  0 C s       :    -0.000000  s :    -0.000000
      pz      :     0.000000  p :     0.000000
      px      :     0.000000
      py      :     0.000000
      dz2     :     0.000000  d :     0.000000
      dxz     :     0.000000
      dyz     :     0.000000
      dx2y2   :     0.000000
      dxy     :     0.000000
  1 C s       :    -0.000000  s :    -0.000000
      pz      :     0.000000  p :     0.000000
      px      :     0.000000
      py      :     0.000000
      dz2     :     0.000000  d :     0.000000
      dxz     :     0.000000
      dyz     :     0.000000
      dx2y2   :     0.000000
      dxy     :     0.000000
  2 C s       :    -0.000000  s :    -0.000000
      pz      :     0.000000  p :     0.000000
      px      :     0.000000
      py      :     0.000000
      dz2     :     0.000000  d :     0.000000
      dxz     :     0.000000
      dyz     :     0.000000
      dx2y2   :     0.000000
      dxy     :     0.000000
  3 C s       :    -0.000000  s :    -0.000000
      pz      :     0.000000  p :     0.000000
      px      :     0.000000
      py      :     0.000000
      dz2     :     0.000000  d :     0.000000
      dxz     :     0.000000
      dyz     :     0.000000
      dx2y2   :     0.000000
      dxy     :     0.000000
  4 C s       :    -0.000000  s :    -0.000000
      pz      :     0.000000  p :     0.000000
      px      :     0.000000
      py      :     0.000000
      dz2     :     0.000000  d :     0.000000
      dxz     :     0.000000
      dyz     :     0.000000
      dx2y2   :     0.000000
      dxy     :     0.000000
  5 C s       :    -0.000000  s :    -0.000000
      pz      :     0.000000  p :     0.000000
      px      :     0.000000
      py      :     0.000000
      dz2     :     0.000000  d :     0.000000
      dxz     :     0.000000
      dyz     :     0.000000
      dx2y2   :     0.000000
      dxy     :     0.000000
  6 C s       :    -0.000000  s :    -0.000000
      pz      :     0.000000  p :     0.000000
      px      :     0.000000
      py      :     0.000000
      dz2     :     0.000000  d :     0.000000
      dxz     :     0.000000
      dyz     :     0.000000
      dx2y2   :     0.000000
      dxy     :     0.000000
  7 C s       :    -0.000000  s :    -0.000000
      pz      :     0.000000  p :     0.000000
      px      :     0.000000
      py      :     0.000000
      dz2     :     0.000000  d :     0.000000
      dxz     :     0.000000
      dyz     :     0.000000
      dx2y2   :     0.000000
      dxy     :     0.000000
  8 C s       :    -0.000000  s :    -0.000000
      pz      :     0.000000  p :     0.000000
      px      :     0.000000
      py      :     0.000000
      dz2     :     0.000000  d :     0.000000
      dxz     :     0.000000
      dyz     :     0.000000
      dx2y2   :     0.000000
      dxy     :     0.000000
  9 C s       :    -0.000000  s :    -0.000000
      pz      :     0.000000  p :     0.000000
      px      :     0.000000
      py      :     0.000000
      dz2     :     0.000000  d :     0.000000
      dxz     :     0.000000
      dyz     :     0.000000
      dx2y2   :     0.000000
      dxy     :     0.000000
 10 H s       :     0.000000  s :     0.000000
 11 H s       :     0.000000  s :     0.000000
 12 H s       :     0.000000  s :     0.000000
 13 H s       :     0.000000  s :     0.000000
 14 H s       :     0.000000  s :     0.000000
 15 H s       :     0.000000  s :     0.000000
 16 H s       :     0.000000  s :     0.000000
 17 H s       :     0.000000  s :     0.000000
 18 H s       :     0.000000  s :     0.000000
 19 H s       :     0.000000  s :     0.000000
 20 H s       :     0.000000  s :     0.000000
 21 H s       :     0.000000  s :     0.000000
 22 H s       :     0.000000  s :     0.000000
 23 H s       :     0.000000  s :     0.000000
 24 H s       :     0.000000  s :     0.000000
 25 H s       :     0.000000  s :     0.000000
 26 H s       :     0.000000  s :     0.000000
 27 H s       :     0.000000  s :     0.000000
 28 H s       :     0.000000  s :     0.000000
 29 H s       :     0.000000  s :     0.000000
 30 H s       :     0.000000  s :     0.000000
 31 H s       :     0.000000  s :     0.000000


                     *******************************
                     * LOEWDIN POPULATION ANALYSIS *
                     *******************************

-------------------------------------------
LOEWDIN ATOMIC CHARGES AND SPIN POPULATIONS
-------------------------------------------
   0 C :   -0.322410    0.000000
   1 C :   -0.219767    0.000000
   2 C :   -0.214794    0.000000
   3 C :   -0.213638    0.000000
   4 C :   -0.209302    0.000000
   5 C :   -0.216802    0.000000
   6 C :   -0.205999    0.000000
   7 C :   -0.210708    0.000000
   8 C :   -0.222108    0.000000
   9 C :   -0.320315    0.000000
  10 H :    0.111145    0.000000
  11 H :    0.110147    0.000000
  12 H :    0.108866    0.000000
  13 H :    0.106003    0.000000
  14 H :    0.108198    0.000000
  15 H :    0.106673    0.000000
  16 H :    0.110915    0.000000
  17 H :    0.109223    0.000000
  18 H :    0.103134    0.000000
  19 H :    0.102839    0.000000
  20 H :    0.100392    0.000000
  21 H :    0.106681    0.000000
  22 H :    0.107338    0.000000
  23 H :    0.106934    0.000000
  24 H :    0.107190    0.000000
  25 H :    0.104080    0.000000
  26 H :    0.105061    0.000000
  27 H :    0.105635    0.000000
  28 H :    0.109064    0.000000
  29 H :    0.109342    0.000000
  30 H :    0.108778    0.000000
  31 H :    0.108206    0.000000

----------------------------------------------------
LOEWDIN REDUCED ORBITAL CHARGES AND SPIN POPULATIONS
----------------------------------------------------
CHARGE
  0 C s       :     2.949751  s :     2.949751
      pz      :     1.097054  p :     3.296347
      px      :     1.100476
      py      :     1.098817
      dz2     :     0.024081  d :     0.076312
      dxz     :     0.008416
      dyz     :     0.012447
      dx2y2   :     0.023345
      dxy     :     0.008022
  1 C s       :     2.896031  s :     2.896031
      pz      :     1.080464  p :     3.226025
      px      :     1.067554
      py      :     1.078007
      dz2     :     0.020054  d :     0.097711
      dxz     :     0.015261
      dyz     :     0.021537
      dx2y2   :     0.015164
      dxy     :     0.025695
  2 C s       :     2.899206  s :     2.899206
      pz      :     1.078677  p :     3.218091
      px      :     1.061640
      py      :     1.077774
      dz2     :     0.010303  d :     0.097496
      dxz     :     0.021148
      dyz     :     0.026416
      dx2y2   :     0.019358
      dxy     :     0.020271
  3 C s       :     2.904890  s :     2.904890
      pz      :     1.076306  p :     3.214246
      px      :     1.058696
      py      :     1.079244
      dz2     :     0.007835  d :     0.094503
      dxz     :     0.024333
      dyz     :     0.027454
      dx2y2   :     0.009244
      dxy     :     0.025638
  4 C s       :     2.909951  s :     2.909951
      pz      :     1.070896  p :     3.205438
      px      :     1.059289
      py      :     1.075254
      dz2     :     0.009540  d :     0.093913
      dxz     :     0.025789
      dyz     :     0.023842
      dx2y2   :     0.008853
      dxy     :     0.025889
  5 C s       :     2.906478  s :     2.906478
      pz      :     1.077654  p :     3.217571
      px      :     1.060132
      py      :     1.079785
      dz2     :     0.026287  d :     0.092753
      dxz     :     0.015652
      dyz     :     0.009800
      dx2y2   :     0.023212
      dxy     :     0.017801
  6 C s       :     2.907844  s :     2.907844
      pz      :     1.072554  p :     3.203345
      px      :     1.053644
      py      :     1.077147
      dz2     :     0.026780  d :     0.094810
      dxz     :     0.013867
      dyz     :     0.012100
      dx2y2   :     0.020469
      dxy     :     0.021594
  7 C s       :     2.910895  s :     2.910895
      pz      :     1.071369  p :     3.208845
      px      :     1.062905
      py      :     1.074571
      dz2     :     0.011620  d :     0.090968
      dxz     :     0.023247
      dyz     :     0.023870
      dx2y2   :     0.008986
      dxy     :     0.023246
  8 C s       :     2.909773  s :     2.909773
      pz      :     1.081087  p :     3.219270
      px      :     1.055526
      py      :     1.082657
      dz2     :     0.013658  d :     0.093065
      dxz     :     0.023925
      dyz     :     0.020843
      dx2y2   :     0.018741
      dxy     :     0.015898
  9 C s       :     2.954566  s :     2.954566
      pz      :     1.096508  p :     3.291193
      px      :     1.083257
      py      :     1.111429
      dz2     :     0.004380  d :     0.074556
      dxz     :     0.021793
      dyz     :     0.023304
      dx2y2   :     0.020402
      dxy     :     0.004677
 10 H s       :     0.888855  s :     0.888855
 11 H s       :     0.889853  s :     0.889853
 12 H s       :     0.891134  s :     0.891134
 13 H s       :     0.893997  s :     0.893997
 14 H s       :     0.891802  s :     0.891802
 15 H s       :     0.893327  s :     0.893327
 16 H s       :     0.889085  s :     0.889085
 17 H s       :     0.890777  s :     0.890777
 18 H s       :     0.896866  s :     0.896866
 19 H s       :     0.897161  s :     0.897161
 20 H s       :     0.899608  s :     0.899608
 21 H s       :     0.893319  s :     0.893319
 22 H s       :     0.892662  s :     0.892662
 23 H s       :     0.893066  s :     0.893066
 24 H s       :     0.892810  s :     0.892810
 25 H s       :     0.895920  s :     0.895920
 26 H s       :     0.894939  s :     0.894939
 27 H s       :     0.894365  s :     0.894365
 28 H s       :     0.890936  s :     0.890936
 29 H s       :     0.890658  s :     0.890658
 30 H s       :     0.891222  s :     0.891222
 31 H s       :     0.891794  s :     0.891794

SPIN
  0 C s       :     0.000000  s :     0.000000
      pz      :     0.000000  p :     0.000000
      px      :     0.000000
      py      :     0.000000
      dz2     :     0.000000  d :     0.000000
      dxz     :     0.000000
      dyz     :     0.000000
      dx2y2   :     0.000000
      dxy     :     0.000000
  1 C s       :     0.000000  s :     0.000000
      pz      :     0.000000  p :     0.000000
      px      :     0.000000
      py      :     0.000000
      dz2     :     0.000000  d :     0.000000
      dxz     :     0.000000
      dyz     :     0.000000
      dx2y2   :     0.000000
      dxy     :     0.000000
  2 C s       :     0.000000  s :     0.000000
      pz      :     0.000000  p :     0.000000
      px      :     0.000000
      py      :     0.000000
      dz2     :     0.000000  d :     0.000000
      dxz     :     0.000000
      dyz     :     0.000000
      dx2y2   :     0.000000
      dxy     :     0.000000
  3 C s       :     0.000000  s :     0.000000
      pz      :     0.000000  p :     0.000000
      px      :     0.000000
      py      :     0.000000
      dz2     :     0.000000  d :     0.000000
      dxz     :     0.000000
      dyz     :     0.000000
      dx2y2   :     0.000000
      dxy     :     0.000000
  4 C s       :     0.000000  s :     0.000000
      pz      :     0.000000  p :     0.000000
      px      :     0.000000
      py      :     0.000000
      dz2     :     0.000000  d :     0.000000
      dxz     :     0.000000
      dyz     :     0.000000
      dx2y2   :     0.000000
      dxy     :     0.000000
  5 C s       :     0.000000  s :     0.000000
      pz      :     0.000000  p :     0.000000
      px      :     0.000000
      py      :     0.000000
      dz2     :     0.000000  d :     0.000000
      dxz     :     0.000000
      dyz     :     0.000000
      dx2y2   :     0.000000
      dxy     :     0.000000
  6 C s       :     0.000000  s :     0.000000
      pz      :     0.000000  p :     0.000000
      px      :     0.000000
      py      :     0.000000
      dz2     :     0.000000  d :     0.000000
      dxz     :     0.000000
      dyz     :     0.000000
      dx2y2   :     0.000000
      dxy     :     0.000000
  7 C s       :     0.000000  s :     0.000000
      pz      :     0.000000  p :     0.000000
      px      :     0.000000
      py      :     0.000000
      dz2     :     0.000000  d :     0.000000
      dxz     :     0.000000
      dyz     :     0.000000
      dx2y2   :     0.000000
      dxy     :     0.000000
  8 C s       :     0.000000  s :     0.000000
      pz      :     0.000000  p :     0.000000
      px      :     0.000000
      py      :     0.000000
      dz2     :     0.000000  d :     0.000000
      dxz     :     0.000000
      dyz     :     0.000000
      dx2y2   :     0.000000
      dxy     :     0.000000
  9 C s       :     0.000000  s :     0.000000
      pz      :     0.000000  p :     0.000000
      px      :     0.000000
      py      :     0.000000
      dz2     :     0.000000  d :     0.000000
      dxz     :     0.000000
      dyz     :     0.000000
      dx2y2   :     0.000000
      dxy     :     0.000000
 10 H s       :     0.000000  s :     0.000000
 11 H s       :     0.000000  s :     0.000000
 12 H s       :     0.000000  s :     0.000000
 13 H s       :     0.000000  s :     0.000000
 14 H s       :     0.000000  s :     0.000000
 15 H s       :     0.000000  s :     0.000000
 16 H s       :     0.000000  s :     0.000000
 17 H s       :     0.000000  s :     0.000000
 18 H s       :     0.000000  s :     0.000000
 19 H s       :     0.000000  s :     0.000000
 20 H s       :     0.000000  s :     0.000000
 21 H s       :     0.000000  s :     0.000000
 22 H s       :     0.000000  s :     0.000000
 23 H s       :     0.000000  s :     0.000000
 24 H s       :     0.000000  s :     0.000000
 25 H s       :     0.000000  s :     0.000000
 26 H s       :     0.000000  s :     0.000000
 27 H s       :     0.000000  s :     0.000000
 28 H s       :     0.000000  s :     0.000000
 29 H s       :     0.000000  s :     0.000000
 30 H s       :     0.000000  s :     0.000000
 31 H s       :     0.000000  s :     0.000000


                      *****************************
                      * MAYER POPULATION ANALYSIS *
                      *****************************

  NA   - Mulliken gross atomic population
  ZA   - Total nuclear charge
  QA   - Mulliken gross atomic charge
  VA   - Mayer's total valence
  BVA  - Mayer's bonded valence
  FA   - Mayer's free valence

  ATOM       NA         ZA         QA         VA         BVA        FA
  0 C      6.2778     6.0000    -0.2778     4.0404     4.0404    -0.0000
  1 C      6.0961     6.0000    -0.0961     4.1312     4.1312    -0.0000
  2 C      6.1661     6.0000    -0.1661     4.1212     4.1212     0.0000
  3 C      6.1625     6.0000    -0.1625     4.1328     4.1328    -0.0000
  4 C      6.1410     6.0000    -0.1410     4.0832     4.0832     0.0000
  5 C      6.1598     6.0000    -0.1598     4.0775     4.0775     0.0000
  6 C      6.1412     6.0000    -0.1412     4.1084     4.1084     0.0000
  7 C      6.1451     6.0000    -0.1451     4.0687     4.0687     0.0000
  8 C      6.1788     6.0000    -0.1788     4.1129     4.1129     0.0000
  9 C      6.2509     6.0000    -0.2509     4.0047     4.0047     0.0000
 10 H      0.9002     1.0000     0.0998     0.9508     0.9508     0.0000
 11 H      0.9058     1.0000     0.0942     0.9552     0.9552     0.0000
 12 H      0.9150     1.0000     0.0850     0.9490     0.9490     0.0000
 13 H      0.9342     1.0000     0.0658     0.9466     0.9466     0.0000
 14 H      0.9343     1.0000     0.0657     0.9494     0.9494     0.0000
 15 H      0.9315     1.0000     0.0685     0.9605     0.9605     0.0000
 16 H      0.9238     1.0000     0.0762     0.9512     0.9512     0.0000
 17 H      0.9179     1.0000     0.0821     0.9619     0.9619     0.0000
 18 H      0.9330     1.0000     0.0670     0.9505     0.9505     0.0000
 19 H      0.9344     1.0000     0.0656     0.9504     0.9504     0.0000
 20 H      0.9287     1.0000     0.0713     0.9570     0.9570     0.0000
 21 H      0.9086     1.0000     0.0914     0.9619     0.9619     0.0000
 22 H      0.9393     1.0000     0.0607     0.9437     0.9437     0.0000
 23 H      0.9329     1.0000     0.0671     0.9470     0.9470     0.0000
 24 H      0.9128     1.0000     0.0872     0.9559     0.9559     0.0000
 25 H      0.9279     1.0000     0.0721     0.9591     0.9591     0.0000
 26 H      0.9246     1.0000     0.0754     0.9542     0.9542     0.0000
 27 H      0.9156     1.0000     0.0844     0.9517     0.9517     0.0000
 28 H      0.9243     1.0000     0.0757     0.9444     0.9444     0.0000
 29 H      0.9118     1.0000     0.0882     0.9551     0.9551     0.0000
 30 H      0.9194     1.0000     0.0806     0.9519     0.9519     0.0000
 31 H      0.9046     1.0000     0.0954     0.9611     0.9611     0.0000

  Mayer bond orders larger than 0.100000
B(  0-C ,  1-C ) :   1.1522 B(  0-C , 10-H ) :   0.9511 B(  0-C , 11-H ) :   0.9553 
[...]
      px      :     0.000000
      py      :     0.000000
      dz2     :     0.000000  d :     0.000000
      dxz     :     0.000000
      dyz     :     0.000000
      dx2y2   :     0.000000
      dxy     :     0.000000
  9 C s       :    -0.000000  s :    -0.000000
      pz      :     0.000000  p :     0.000000
      px      :     0.000000
      py      :     0.000000
      dz2     :     0.000000  d :     0.000000
      dxz     :     0.000000
      dyz     :     0.000000
      dx2y2   :     0.000000
      dxy     :     0.000000
 10 H s       :     0.000000  s :     0.000000
 11 H s       :     0.000000  s :     0.000000
 12 H s       :     0.000000  s :     0.000000
 13 H s       :     0.000000  s :     0.000000
 14 H s       :     0.000000  s :     0.000000
 15 H s       :     0.000000  s :     0.000000
 16 H s       :     0.000000  s :     0.000000
 17 H s       :     0.000000  s :     0.000000
 18 H s       :     0.000000  s :     0.000000
 19 H s       :     0.000000  s :     0.000000
 20 H s       :     0.000000  s :     0.000000
 21 H s       :     0.000000  s :     0.000000
 22 H s       :     0.000000  s :     0.000000
 23 H s       :     0.000000  s :     0.000000
 24 H s       :     0.000000  s :     0.000000
 25 H s       :     0.000000  s :     0.000000
 26 H s       :     0.000000  s :     0.000000
 27 H s       :     0.000000  s :     0.000000
 28 H s       :     0.000000  s :     0.000000
 29 H s       :     0.000000  s :     0.000000
 30 H s       :     0.000000  s :     0.000000
 31 H s       :     0.000000  s :     0.000000


                     *******************************
                     * LOEWDIN POPULATION ANALYSIS *
                     *******************************

-------------------------------------------
LOEWDIN ATOMIC CHARGES AND SPIN POPULATIONS
-------------------------------------------
   0 C :   -0.322232    0.000000
   1 C :   -0.217831    0.000000
   2 C :   -0.213126    0.000000
   3 C :   -0.210892    0.000000
   4 C :   -0.211579    0.000000
   5 C :   -0.211981    0.000000
   6 C :   -0.208220    0.000000
   7 C :   -0.213951    0.000000
   8 C :   -0.217249    0.000000
   9 C :   -0.318337    0.000000
  10 H :    0.108303    0.000000
  11 H :    0.109158    0.000000
  12 H :    0.111420    0.000000
  13 H :    0.107165    0.000000
  14 H :    0.106369    0.000000
  15 H :    0.104525    0.000000
  16 H :    0.105882    0.000000
  17 H :    0.106076    0.000000
  18 H :    0.105190    0.000000
  19 H :    0.105077    0.000000
  20 H :    0.106815    0.000000
  21 H :    0.104925    0.000000
  22 H :    0.106629    0.000000
  23 H :    0.105135    0.000000
  24 H :    0.105303    0.000000
  25 H :    0.104742    0.000000
  26 H :    0.104620    0.000000
  27 H :    0.104315    0.000000
  28 H :    0.106308    0.000000
  29 H :    0.110536    0.000000
  30 H :    0.107923    0.000000
  31 H :    0.108980    0.000000

----------------------------------------------------
LOEWDIN REDUCED ORBITAL CHARGES AND SPIN POPULATIONS
----------------------------------------------------
CHARGE
  0 C s       :     2.952151  s :     2.952151
      pz      :     1.109239  p :     3.296822
      px      :     1.097536
      py      :     1.090048
      dz2     :     0.023397  d :     0.073259
      dxz     :     0.007488
      dyz     :     0.008525
      dx2y2   :     0.019025
      dxy     :     0.014823
  1 C s       :     2.911364  s :     2.911364
      pz      :     1.087863  p :     3.215899
      px      :     1.055669
      py      :     1.072367
      dz2     :     0.028684  d :     0.090568
      dxz     :     0.010969
      dyz     :     0.007629
      dx2y2   :     0.017633
      dxy     :     0.025653
  2 C s       :     2.913569  s :     2.913569
      pz      :     1.085378  p :     3.209640
      px      :     1.045521
      py      :     1.078741
      dz2     :     0.028632  d :     0.089917
      dxz     :     0.011891
      dyz     :     0.006697
      dx2y2   :     0.021168
      dxy     :     0.021529
  3 C s       :     2.911687  s :     2.911687
      pz      :     1.086076  p :     3.209235
      px      :     1.044402
      py      :     1.078758
      dz2     :     0.028563  d :     0.089969
      dxz     :     0.011868
      dyz     :     0.006702
      dx2y2   :     0.020953
      dxy     :     0.021883
  4 C s       :     2.911911  s :     2.911911
      pz      :     1.085640  p :     3.209677
      px      :     1.048472
      py      :     1.075565
      dz2     :     0.028979  d :     0.089992
      dxz     :     0.011022
      dyz     :     0.007168
      dx2y2   :     0.017558
      dxy     :     0.025264
  5 C s       :     2.911783  s :     2.911783
      pz      :     1.085490  p :     3.210201
      px      :     1.049035
      py      :     1.075676
      dz2     :     0.029074  d :     0.089997
      dxz     :     0.011119
      dyz     :     0.007134
      dx2y2   :     0.017494
      dxy     :     0.025176
  6 C s       :     2.911896  s :     2.911896
      pz      :     1.087080  p :     3.206137
      px      :     1.045109
      py      :     1.073948
      dz2     :     0.028140  d :     0.090187
      dxz     :     0.011856
      dyz     :     0.007280
      dx2y2   :     0.020246
      dxy     :     0.022665
  7 C s       :     2.914317  s :     2.914317
      pz      :     1.086959  p :     3.209658
      px      :     1.043263
      py      :     1.079437
      dz2     :     0.027585  d :     0.089976
      dxz     :     0.011281
      dyz     :     0.008569
      dx2y2   :     0.021513
      dxy     :     0.021027
  8 C s       :     2.911819  s :     2.911819
      pz      :     1.089088  p :     3.214658
      px      :     1.048932
      py      :     1.076639
      dz2     :     0.027352  d :     0.090772
      dxz     :     0.011384
      dyz     :     0.008827
      dx2y2   :     0.021526
      dxy     :     0.021683
  9 C s       :     2.952424  s :     2.952424
      pz      :     1.110981  p :     3.292484
      px      :     1.089281
      py      :     1.092222
      dz2     :     0.022411  d :     0.073428
      dxz     :     0.008177
      dyz     :     0.009110
      dx2y2   :     0.020165
      dxy     :     0.013565
 10 H s       :     0.891697  s :     0.891697
 11 H s       :     0.890842  s :     0.890842
 12 H s       :     0.888580  s :     0.888580
 13 H s       :     0.892835  s :     0.892835
 14 H s       :     0.893631  s :     0.893631
 15 H s       :     0.895475  s :     0.895475
 16 H s       :     0.894118  s :     0.894118
 17 H s       :     0.893924  s :     0.893924
 18 H s       :     0.894810  s :     0.894810
 19 H s       :     0.894923  s :     0.894923
 20 H s       :     0.893185  s :     0.893185
 21 H s       :     0.895075  s :     0.895075
 22 H s       :     0.893371  s :     0.893371
 23 H s       :     0.894865  s :     0.894865
 24 H s       :     0.894697  s :     0.894697
 25 H s       :     0.895258  s :     0.895258
 26 H s       :     0.895380  s :     0.895380
 27 H s       :     0.895685  s :     0.895685
 28 H s       :     0.893692  s :     0.893692
 29 H s       :     0.889464  s :     0.889464
 30 H s       :     0.892077  s :     0.892077
 31 H s       :     0.891020  s :     0.891020

SPIN
  0 C s       :     0.000000  s :     0.000000
      pz      :     0.000000  p :     0.000000
      px      :     0.000000
      py      :     0.000000
      dz2     :     0.000000  d :     0.000000
      dxz     :     0.000000
      dyz     :     0.000000
      dx2y2   :     0.000000
      dxy     :     0.000000
  1 C s       :     0.000000  s :     0.000000
      pz      :     0.000000  p :     0.000000
      px      :     0.000000
      py      :     0.000000
      dz2     :     0.000000  d :     0.000000
      dxz     :     0.000000
      dyz     :     0.000000
      dx2y2   :     0.000000
      dxy     :     0.000000
  2 C s       :     0.000000  s :     0.000000
      pz      :     0.000000  p :     0.000000
      px      :     0.000000
      py      :     0.000000
      dz2     :     0.000000  d :     0.000000
      dxz     :     0.000000
      dyz     :     0.000000
      dx2y2   :     0.000000
      dxy     :     0.000000
  3 C s       :     0.000000  s :     0.000000
      pz      :     0.000000  p :     0.000000
      px      :     0.000000
      py      :     0.000000
      dz2     :     0.000000  d :     0.000000
      dxz     :     0.000000
      dyz     :     0.000000
      dx2y2   :     0.000000
      dxy     :     0.000000
  4 C s       :     0.000000  s :     0.000000
      pz      :     0.000000  p :     0.000000
      px      :     0.000000
      py      :     0.000000
      dz2     :     0.000000  d :     0.000000
      dxz     :     0.000000
      dyz     :     0.000000
      dx2y2   :     0.000000
      dxy     :     0.000000
  5 C s       :     0.000000  s :     0.000000
      pz      :     0.000000  p :     0.000000
      px      :     0.000000
      py      :     0.000000
      dz2     :     0.000000  d :     0.000000
      dxz     :     0.000000
      dyz     :     0.000000
      dx2y2   :     0.000000
      dxy     :     0.000000
  6 C s       :     0.000000  s :     0.000000
      pz      :     0.000000  p :     0.000000
      px      :     0.000000
      py      :     0.000000
      dz2     :     0.000000  d :     0.000000
      dxz     :     0.000000
      dyz     :     0.000000
      dx2y2   :     0.000000
      dxy     :     0.000000
  7 C s       :     0.000000  s :     0.000000
      pz      :     0.000000  p :     0.000000
      px      :     0.000000
      py      :     0.000000
      dz2     :     0.000000  d :     0.000000
      dxz     :     0.000000
      dyz     :     0.000000
      dx2y2   :     0.000000
      dxy     :     0.000000
  8 C s       :     0.000000  s :     0.000000
      pz      :     0.000000  p :     0.000000
      px      :     0.000000
      py      :     0.000000
      dz2     :     0.000000  d :     0.000000
      dxz     :     0.000000
      dyz     :     0.000000
      dx2y2   :     0.000000
      dxy     :     0.000000
  9 C s       :     0.000000  s :     0.000000
      pz      :     0.000000  p :     0.000000
      px      :     0.000000
      py      :     0.000000
      dz2     :     0.000000  d :     0.000000
      dxz     :     0.000000
      dyz     :     0.000000
      dx2y2   :     0.000000
      dxy     :     0.000000
 10 H s       :     0.000000  s :     0.000000
 11 H s       :     0.000000  s :     0.000000
 12 H s       :     0.000000  s :     0.000000
 13 H s       :     0.000000  s :     0.000000
 14 H s       :     0.000000  s :     0.000000
 15 H s       :     0.000000  s :     0.000000
 16 H s       :     0.000000  s :     0.000000
 17 H s       :     0.000000  s :     0.000000
 18 H s       :     0.000000  s :     0.000000
 19 H s       :     0.000000  s :     0.000000
 20 H s       :     0.000000  s :     0.000000
 21 H s       :     0.000000  s :     0.000000
 22 H s       :     0.000000  s :     0.000000
 23 H s       :     0.000000  s :     0.000000
 24 H s       :     0.000000  s :     0.000000
 25 H s       :     0.000000  s :     0.000000
 26 H s       :     0.000000  s :     0.000000
 27 H s       :     0.000000  s :     0.000000
 28 H s       :     0.000000  s :     0.000000
 29 H s       :     0.000000  s :     0.000000
 30 H s       :     0.000000  s :     0.000000
 31 H s       :     0.000000  s :     0.000000


                      *****************************
                      * MAYER POPULATION ANALYSIS *
                      *****************************

  NA   - Mulliken gross atomic population
  ZA   - Total nuclear charge
  QA   - Mulliken gross atomic charge
  VA   - Mayer's total valence
  BVA  - Mayer's bonded valence
  FA   - Mayer's free valence

  ATOM       NA         ZA         QA         VA         BVA        FA
  0 C      6.2654     6.0000    -0.2654     4.0095     4.0095     0.0000
  1 C      6.1361     6.0000    -0.1361     4.1181     4.1181     0.0000
  2 C      6.1613     6.0000    -0.1613     4.0918     4.0918     0.0000
  3 C      6.1279     6.0000    -0.1279     4.0788     4.0788     0.0000
  4 C      6.1457     6.0000    -0.1457     4.0918     4.0918     0.0000
  5 C      6.1445     6.0000    -0.1445     4.0923     4.0923     0.0000
  6 C      6.1029     6.0000    -0.1029     4.0807     4.0807     0.0000
  7 C      6.1849     6.0000    -0.1849     4.0938     4.0938     0.0000
  8 C      6.1463     6.0000    -0.1463     4.1146     4.1146     0.0000
  9 C      6.2351     6.0000    -0.2351     4.0054     4.0054     0.0000
 10 H      0.9049     1.0000     0.0951     0.9569     0.9569     0.0000
 11 H      0.9114     1.0000     0.0886     0.9575     0.9575     0.0000
 12 H      0.9103     1.0000     0.0897     0.9518     0.9518     0.0000
 13 H      0.9288     1.0000     0.0712     0.9456     0.9456     0.0000
 14 H      0.9275     1.0000     0.0725     0.9505     0.9505     0.0000
 15 H      0.9327     1.0000     0.0673     0.9554     0.9554     0.0000
 16 H      0.9235     1.0000     0.0765     0.9518     0.9518     0.0000
 17 H      0.9303     1.0000     0.0697     0.9556     0.9556     0.0000
 18 H      0.9352     1.0000     0.0648     0.9572     0.9572     0.0000
 19 H      0.9351     1.0000     0.0649     0.9571     0.9571     0.0000
 20 H      0.9240     1.0000     0.0760     0.9522     0.9522     0.0000
 21 H      0.9347     1.0000     0.0653     0.9565     0.9565     0.0000
 22 H      0.9237     1.0000     0.0763     0.9522     0.9522     0.0000
 23 H      0.9387     1.0000     0.0613     0.9529     0.9529     0.0000
 24 H      0.9344     1.0000     0.0656     0.9569     0.9569     0.0000
 25 H      0.9324     1.0000     0.0676     0.9551     0.9551     0.0000
 26 H      0.9231     1.0000     0.0769     0.9548     0.9548     0.0000
 27 H      0.9333     1.0000     0.0667     0.9508     0.9508     0.0000
 28 H      0.9268     1.0000     0.0732     0.9497     0.9497     0.0000
 29 H      0.9111     1.0000     0.0889     0.9522     0.9522     0.0000
 30 H      0.9162     1.0000     0.0838     0.9581     0.9581     0.0000
 31 H      0.9118     1.0000     0.0882     0.9573     0.9573     0.0000

  Mayer bond orders larger than 0.100000
B(  0-C ,  1-C ) :   1.1319 B(  0-C , 10-H ) :   0.9561 B(  0-C , 11-H ) :   0.9610 
B(  0-C , 12-H ) :   0.9579 B(  1-C ,  2-C ) :   1.1082 B(  1-C , 13-H ) :   0.9369 
B(  1-C , 14-H ) :   0.9339 B(  2-C ,  3-C ) :   1.1159 B(  2-C , 15-H ) :   0.9305 
B(  2-C , 16-H ) :   0.9266 B(  3-C ,  4-C ) :   1.1080 B(  3-C , 17-H ) :   0.9270 
B(  3-C , 18-H ) :   0.9268 B(  4-C ,  5-C ) :   1.1196 B(  4-C , 19-H ) :   0.9270 
B(  4-C , 20-H ) :   0.9258 B(  5-C ,  6-C ) :   1.1104 B(  5-C , 21-H ) :   0.9263 
B(  5-C , 22-H ) :   0.9248 B(  6-C ,  7-C ) :   1.1173 B(  6-C , 23-H ) :   0.9295 
B(  6-C , 24-H ) :   0.9253 B(  7-C ,  8-C ) :   1.1125 B(  7-C , 25-H ) :   0.9319 
B(  7-C , 26-H ) :   0.9268 B(  8-C ,  9-C ) :   1.1341 B(  8-C , 27-H ) :   0.9339 
B(  8-C , 28-H ) :   0.9351 B(  9-C , 29-H ) :   0.9593 B(  9-C , 30-H ) :   0.9597 
B(  9-C , 31-H ) :   0.9606 

-------
TIMINGS
-------

Total SCF time: 0 days 0 hours 2 min 14 sec 

Total time                  ....     134.663 sec
Sum of individual times     ....     115.346 sec  ( 85.7%)

Fock matrix formation       ....      97.277 sec  ( 72.2%)
  XC integration            ....      33.423 sec  ( 34.4% of F)
    Basis function eval.    ....       1.970 sec  (  5.9% of XC)
    Density eval.           ....       1.798 sec  (  5.4% of XC)
    XC-Functional eval.     ....       0.390 sec  (  1.2% of XC)
    XC-Potential eval.      ....       2.132 sec  (  6.4% of XC)
Diagonalization             ....       0.132 sec  (  0.1%)
Density matrix formation    ....       4.749 sec  (  3.5%)
Population analysis         ....       6.202 sec  (  4.6%)
Initial guess               ....       0.016 sec  (  0.0%)
Orbital Transformation      ....       0.000 sec  (  0.0%)
Orbital Orthonormalization  ....       0.008 sec  (  0.0%)
DIIS solution               ....       2.603 sec  (  1.9%)
Grid generation             ....       4.368 sec  (  3.2%)


-------------------------------------------------------------------------------
                          DFT DISPERSION CORRECTION                            
                                                                               
                              DFTD3 V3.1  Rev 1                                
                          USING Becke-Johnson damping                          
-------------------------------------------------------------------------------
The B3LYP functional is recognized
Active option DFTDOPT                   ...         4   

molecular C6(AA) [au] = 6609.759767 


            DFT-D V3
 parameters
 s6 scaling factor         :     1.0000 
 a1 scaling factor         :     0.3981 
 s8 scaling factor         :     1.9889 
 a2 scaling factor         :     4.4211 
 ad hoc parameters k1-k3   :    16.0000     1.3333    -4.0000 

 Edisp/kcal,au: -27.983871704250  -0.044595133422 
 E6   /kcal   : -14.053515863 
 E8   /kcal   : -13.930355841 
 % E8         :  49.779944636 

-------------------------   ----------------
Dispersion correction           -0.044595133
-------------------------   ----------------


-------------------------   --------------------
FINAL SINGLE POINT ENERGY      -393.747787678271
-------------------------   --------------------

                                *** OPTIMIZATION RUN DONE ***

                            ***************************************
                            *     ORCA property calculations      *
                            ***************************************

                                    ---------------------
                                    Active property flags
                                    ---------------------
   (+) Dipole Moment


------------------------------------------------------------------------------
                       ORCA ELECTRIC PROPERTIES CALCULATION
------------------------------------------------------------------------------

Dipole Moment Calculation                       ... on
Quadrupole Moment Calculation                   ... off
Polarizability Calculation                      ... off
GBWName                                         ... orca3.gbw
Electron density file                           ... orca3.scfp
The origin for moment calculation is the CENTER OF MASS  = (-0.007973, -0.081371  0.014573)

-------------
DIPOLE MOMENT
-------------
                                X             Y             Z
Electronic contribution:     -0.14650      -1.42597       0.03911
Nuclear contribution   :      0.13827       1.41114      -0.03736
                        -----------------------------------------
Total Dipole Moment    :     -0.00823      -0.01482       0.00175
                        -----------------------------------------
Magnitude (a.u.)       :      0.01705
Magnitude (Debye)      :      0.04333



--------------------
Rotational spectrum 
--------------------
 
Rotational constants in cm-1:     0.156049     0.010328     0.009978 
Rotational constants in MHz :  4678.239108   309.613653   299.119933 

 Dipole components along the rotational axes: 
x,y,z [a.u.] :    -0.008436    -0.014697    -0.001860 
x,y,z [Debye]:    -0.021443    -0.037358    -0.004727 

 

Timings for individual modules:

Sum of individual times         ...     7963.307 sec (= 132.722 min)
GTO integral calculation        ...      149.288 sec (=   2.488 min)   1.9 %
SCF iterations                  ...     7009.588 sec (= 116.826 min)  88.0 %
SCF Gradient evaluation         ...      710.624 sec (=  11.844 min)   8.9 %
Geometry relaxation             ...       93.807 sec (=   1.563 min)   1.2 %
                             ****ORCA TERMINATED NORMALLY****
TOTAL RUN TIME: 0 days 2 hours 15 minutes 52 seconds 278 msec
