
                                 *****************
                                 * O   R   C   A *
                                 *****************

           --- An Ab Initio, DFT and Semiempirical electronic structure package ---

                  #######################################################
                  #                        -***-                        #
                  #          Department of theory and spectroscopy      #
                  #               Directorship: Frank Neese             #
                  #        Max Planck Institute fuer Kohlenforschung    #
                  #                Kaiser Wilhelm Platz 1               #
                  #                 D-45470 Muelheim/Ruhr               #
                  #                      Germany                        #
                  #                                                     #
                  #                  All rights reserved                #
                  #                        -***-                        #
                  #######################################################


                         Program Version 4.2.1 -  RELEASE  -


 With contributions from (in alphabetic order):
   Daniel Aravena         : Magnetic Suceptibility
   Michael Atanasov       : Ab Initio Ligand Field Theory (pilot matlab implementation)
   Alexander A. Auer      : GIAO ZORA, VPT2
   Ute Becker             : Parallelization
   Giovanni Bistoni       : ED, misc. LED, open-shell LED, HFLD
   Martin Brehm           : Molecular dynamics
   Dmytro Bykov           : SCF Hessian
   Vijay G. Chilkuri      : MRCI spin determinant printing, contributions to CSF-ICE
   Dipayan Datta          : RHF DLPNO-CCSD density
   Achintya Kumar Dutta   : EOM-CC, STEOM-CC
   Dmitry Ganyushin       : Spin-Orbit,Spin-Spin,Magnetic field MRCI
   Miquel Garcia          : C-PCM Hessian, Gaussian charge scheme
   Yang Guo               : DLPNO-NEVPT2, CIM, IAO-localization
   Andreas Hansen         : Spin unrestricted coupled pair/coupled cluster methods
   Benjamin Helmich-Paris : CASSCF linear response (MC-RPA)
   Lee Huntington         : MR-EOM, pCC
   Robert Izsak           : Overlap fitted RIJCOSX, COSX-SCS-MP3, EOM
   Christian Kollmar      : KDIIS, OOCD, Brueckner-CCSD(T), CCSD density
   Simone Kossmann        : Meta GGA functionals, TD-DFT gradient, OOMP2, MP2 Hessian
   Martin Krupicka        : AUTO-CI
   Lucas Lang             : DCDCAS
   Dagmar Lenk            : GEPOL surface, SMD
   Dimitrios Liakos       : Extrapolation schemes; Compound Job, initial MDCI parallelization
   Dimitrios Manganas     : Further ROCIS development; embedding schemes
   Dimitrios Pantazis     : SARC Basis sets
   Taras Petrenko         : DFT Hessian,TD-DFT gradient, ASA, ECA, R-Raman, ABS, FL, XAS/XES, NRVS
   Peter Pinski           : DLPNO-MP2, DLPNO-MP2 Gradient
   Christoph Reimann      : Effective Core Potentials
   Marius Retegan         : Local ZFS, SOC
   Christoph Riplinger    : Optimizer, TS searches, QM/MM, DLPNO-CCSD(T), (RO)-DLPNO pert. Triples
   Tobias Risthaus        : Range-separated hybrids, TD-DFT gradient, RPA, STAB
   Michael Roemelt        : Original ROCIS implementation
   Masaaki Saitow         : Open-shell DLPNO-CCSD energy and density
   Barbara Sandhoefer     : DKH picture change effects
   Avijit Sen             : IP-ROCIS
   Kantharuban Sivalingam : CASSCF convergence, NEVPT2, FIC-MRCI
   Bernardo de Souza      : ESD, SOC TD-DFT
   Georgi Stoychev        : AutoAux, RI-MP2 NMR
   Willem Van den Heuvel  : Paramagnetic NMR
   Boris Wezisla          : Elementary symmetry handling
   Frank Wennmohs         : Technical directorship


 We gratefully acknowledge several colleagues who have allowed us to
 interface, adapt or use parts of their codes:
   Stefan Grimme, W. Hujo, H. Kruse,             : VdW corrections, initial TS optimization,
                  C. Bannwarth                     DFT functionals, gCP, sTDA/sTD-DF
   Ed Valeev, F. Pavosevic, A. Kumar             : LibInt (2-el integral package), F12 methods
   Garnet Chan, S. Sharma, J. Yang, R. Olivares  : DMRG
   Ulf Ekstrom                                   : XCFun DFT Library
   Mihaly Kallay                                 : mrcc  (arbitrary order and MRCC methods)
   Andreas Klamt, Michael Diedenhofen            : otool_cosmo (COSMO solvation model)
   Jiri Pittner, Ondrej Demel                    : Mk-CCSD
   Frank Weinhold                                : gennbo (NPA and NBO analysis)
   Christopher J. Cramer and Donald G. Truhlar   : smd solvation model
   Lars Goerigk                                  : TD-DFT with DH, B97 family of functionals
   V. Asgeirsson, H. Jonsson                     : NEB implementation
   FAccTs GmbH                                   : IRC, NEB, NEB-TS, Multilevel, MM, QM/MM, CI optimization
   S Lehtola, MJT Oliveira, MAL Marques          : LibXC Library


 Your calculation uses the libint2 library for the computation of 2-el integrals
 For citations please refer to: http://libint.valeyev.net

 Your ORCA version has been built with support for libXC version: 4.2.3
 For citations please refer to: https://tddft.org/programs/libxc/

 This ORCA versions uses:
   CBLAS   interface :  Fast vector & matrix operations
   LAPACKE interface :  Fast linear algebra routines
   SCALAPACK package :  Parallel linear algebra routines


Your calculation utilizes the atom-pairwise dispersion correction
with the Becke-Johnson damping scheme (D3BJ)
Cite in your paper:
S.Grimme, S.Ehrlich, L.Goerigk, J Comput Chem, (2011), 32, 1456–1465 
S.Grimme, J.Antony, S.Ehrlich and H.Krieg, J.Chem.Phys., 132, (2010), 154104 
   

----- Orbital basis set information -----
Your calculation utilizes the basis: def2-SV(P)
   F. Weigend and R. Ahlrichs, Phys. Chem. Chem. Phys. 7, 3297 (2005).

----- AuxJ basis set information -----
Your calculation utilizes the auxiliary basis: def2/J
   F. Weigend, Phys. Chem. Chem. Phys. 8, 1057 (2006).

================================================================================
                                        WARNINGS
                       Please study these warnings very carefully!
================================================================================


WARNING: Geometry Optimization
  ===> : Switching off AutoStart
         For restart on a previous wavefunction, please use MOREAD

INFO   : the flag for use of LIBINT has been found!

================================================================================
                                       INPUT FILE
================================================================================
NAME = orca4.inp
|  1> ! UKS B3LYP def2-SV(P) def2/J D3BJ Opt
|  2> %scf Convergence VeryTight
|  3> SmearTemp 2000
|  4> maxiter 500
|  5> end
|  6> *xyz 0 1
|  7> C -3.018048 -0.107139 0.048174
|  8> C -1.666729 0.534738 0.233651
|  9> C -0.646255 -0.557306 0.440454
| 10> C 0.731704 -0.033939 0.725321
| 11> C 1.663203 -0.310072 -0.449571
| 12> C 2.950623 0.431401 -0.1322
| 13> H -3.162519 -0.800406 0.907741
| 14> H -3.116533 -0.635126 -0.925289
| 15> H -3.795722 0.687652 0.168784
| 16> H -1.723275 1.154038 1.152328
| 17> H -1.36615 1.171748 -0.610722
| 18> H -1.009653 -1.170738 1.30341
| 19> H -0.584538 -1.191583 -0.470105
| 20> H 0.751713 1.053769 0.949878
| 21> H 1.179172 -0.576536 1.59597
| 22> H 1.228405 -0.016084 -1.413886
| 23> H 1.816918 -1.413815 -0.470653
| 24> H 2.778333 1.274108 0.579845
| 25> H 3.377402 0.803616 -1.081681
| 26> H 3.611946 -0.298325 0.388388
| 27> *
| 28> 
| 29>                          ****END OF INPUT****
================================================================================

                       *****************************
                       * Geometry Optimization Run *
                       *****************************

Geometry optimization settings:
Update method            Update   .... BFGS
Choice of coordinates    CoordSys .... Z-matrix Internals
Initial Hessian          InHess   .... Almoef's Model

Convergence Tolerances:
Energy Change            TolE     ....  5.0000e-06 Eh
Max. Gradient            TolMAXG  ....  3.0000e-04 Eh/bohr
RMS Gradient             TolRMSG  ....  1.0000e-04 Eh/bohr
Max. Displacement        TolMAXD  ....  4.0000e-03 bohr
RMS Displacement         TolRMSD  ....  2.0000e-03 bohr
Strict Convergence                ....  False
------------------------------------------------------------------------------
                        ORCA OPTIMIZATION COORDINATE SETUP
------------------------------------------------------------------------------

The optimization will be done in new redundant internal coordinates
Making redundant internal coordinates   ...  (new redundants) done
Evaluating the initial hessian          ...  (Almloef) done
Evaluating the coordinates              ...  done
Calculating the B-matrix                .... done
Calculating the G-matrix                .... done
Diagonalizing the G-matrix              .... done
Small eigenvalue found = 1.981e-02
Small eigenvalue found = 2.650e-02
The first mode is                       ....   46
The number of degrees of freedom        ....   54

    -----------------------------------------------------------------
                    Redundant Internal Coordinates


    -----------------------------------------------------------------
         Definition                    Initial Value    Approx d2E/dq
    -----------------------------------------------------------------
      1. B(C   1,C   0)                  1.5075         0.405807   
      2. B(C   2,C   1)                  1.5089         0.403725   
      3. B(C   3,C   2)                  1.5013         0.415148   
      4. B(C   4,C   3)                  1.5246         0.381103   
      5. B(C   5,C   4)                  1.5192         0.388700   
      6. B(H   6,C   0)                  1.1137         0.330064   
      7. B(H   7,C   0)                  1.1118         0.332386   
      8. B(H   8,C   0)                  1.1185         0.324318   
      9. B(H   9,C   1)                  1.1094         0.335369   
     10. B(H  10,C   1)                  1.0996         0.347636   
     11. B(H  11,C   2)                  1.1194         0.323238   
     12. B(H  12,C   2)                  1.1114         0.332861   
     13. B(H  13,C   3)                  1.1108         0.333577   
     14. B(H  14,C   3)                  1.1192         0.323440   
     15. B(H  15,C   4)                  1.0979         0.349801   
     16. B(H  16,C   4)                  1.1146         0.328991   
     17. B(H  17,C   5)                  1.1166         0.326549   
     18. B(H  18,C   5)                  1.1055         0.340130   
     19. B(H  19,C   5)                  1.1139         0.329784   
     20. A(H   7,C   0,H   8)          111.7330         0.282574   
     21. A(C   1,C   0,H   7)          112.9136         0.324461   
     22. A(C   1,C   0,H   6)          106.6410         0.324088   
     23. A(H   6,C   0,H   7)          111.6335         0.283345   
     24. A(H   6,C   0,H   8)          105.5997         0.282267   
     25. A(C   1,C   0,H   8)          107.9045         0.323156   
     26. A(C   2,C   1,H  10)          109.8556         0.326587   
     27. A(C   0,C   1,H  10)          113.4051         0.326864   
     28. A(C   2,C   1,H   9)          108.9658         0.324663   
     29. A(C   0,C   1,H   9)          107.0914         0.324938   
     30. A(H   9,C   1,H  10)          109.0526         0.286038   
     31. A(C   0,C   1,C   2)          108.3579         0.373493   
     32. A(H  11,C   2,H  12)          109.6868         0.282490   
     33. A(C   1,C   2,C   3)          113.2323         0.374962   
     34. A(C   3,C   2,H  11)          110.0434         0.324187   
     35. A(C   1,C   2,H  11)          106.4225         0.322706   
     36. A(C   1,C   2,H  12)          109.7738         0.324263   
     37. A(C   3,C   2,H  12)          107.6645         0.325754   
     38. A(C   2,C   3,C   4)          110.5750         0.371254   
     39. A(H  13,C   3,H  14)          108.0743         0.282612   
     40. A(C   4,C   3,H  14)          105.5096         0.319709   
     41. A(C   2,C   3,H  14)          110.2160         0.324220   
     42. A(C   4,C   3,H  13)          108.7920         0.321326   
     43. A(C   2,C   3,H  13)          113.3440         0.325869   
     44. A(H  15,C   4,H  16)          107.6481         0.285459   
     45. A(C   5,C   4,H  16)          111.7402         0.321636   
     46. A(C   3,C   4,H  16)          106.1526         0.320599   
     47. A(C   5,C   4,H  15)          112.8553         0.324888   
     48. A(C   3,C   4,H  15)          112.7310         0.323836   
     49. A(C   3,C   4,C   5)          105.5681         0.367080   
     50. A(C   4,C   5,H  17)          111.7651         0.321244   
     51. A(H  18,C   5,H  19)          113.1255         0.284323   
     52. A(H  17,C   5,H  19)          106.7370         0.282530   
     53. A(C   4,C   5,H  19)          106.3204         0.321763   
     54. A(H  17,C   5,H  18)          110.6793         0.283887   
     55. A(C   4,C   5,H  18)          108.1828         0.323396   
     56. D(H   9,C   1,C   0,H   8)     47.7306         0.013053   
     57. D(H  10,C   1,C   0,H   7)     51.3727         0.013053   
     58. D(H   9,C   1,C   0,H   7)    171.7192         0.013053   
     59. D(H  10,C   1,C   0,H   8)    -72.6159         0.013053   
     60. D(H   9,C   1,C   0,H   6)    -65.3185         0.013053   
     61. D(C   2,C   1,C   0,H   8)    165.1361         0.013053   
     62. D(C   2,C   1,C   0,H   7)    -70.8753         0.013053   
     63. D(C   2,C   1,C   0,H   6)     52.0870         0.013053   
     64. D(H  10,C   1,C   0,H   6)    174.3350         0.013053   
     65. D(H  11,C   2,C   1,H   9)     60.9188         0.012924   
     66. D(C   3,C   2,C   1,H  10)     59.3096         0.012924   
     67. D(C   3,C   2,C   1,C   0)   -176.3007         0.012924   
     68. D(H  11,C   2,C   1,C   0)    -55.2791         0.012924   
     69. D(H  11,C   2,C   1,H  10)   -179.6687         0.012924   
     70. D(H  12,C   2,C   1,H  10)    -61.0372         0.012924   
     71. D(H  12,C   2,C   1,H   9)    179.5503         0.012924   
     72. D(H  12,C   2,C   1,C   0)     63.3525         0.012924   
     73. D(C   3,C   2,C   1,H   9)    -60.1029         0.012924   
     74. D(H  14,C   3,C   2,H  11)     14.3628         0.013644   
     75. D(H  14,C   3,C   2,C   1)    133.3170         0.013644   
     76. D(H  13,C   3,C   2,H  12)    133.5895         0.013644   
     77. D(H  13,C   3,C   2,H  11)   -106.9038         0.013644   
     78. D(H  13,C   3,C   2,C   1)     12.0504         0.013644   
     79. D(C   4,C   3,C   2,H  11)    130.6326         0.013644   
     80. D(C   4,C   3,C   2,H  12)     11.1259         0.013644   
     81. D(H  14,C   3,C   2,H  12)   -105.1439         0.013644   
     82. D(C   4,C   3,C   2,C   1)   -110.4132         0.013644   
     83. D(H  15,C   4,C   3,C   2)     48.4615         0.011572   
     84. D(C   5,C   4,C   3,H  14)    -68.7474         0.011572   
     85. D(C   5,C   4,C   3,H  13)     47.0080         0.011572   
     86. D(C   5,C   4,C   3,C   2)    172.0944         0.011572   
     87. D(H  16,C   4,C   3,H  14)     50.0033         0.011572   
     88. D(H  16,C   4,C   3,H  13)    165.7588         0.011572   
     89. D(H  16,C   4,C   3,C   2)    -69.1548         0.011572   
     90. D(H  15,C   4,C   3,H  14)    167.6196         0.011572   
     91. D(H  15,C   4,C   3,H  13)    -76.6249         0.011572   
     92. D(H  19,C   5,C   4,H  16)    -22.1205         0.012015   
     93. D(H  19,C   5,C   4,H  15)   -143.6051         0.012015   
     94. D(H  19,C   5,C   4,C   3)     92.8406         0.012015   
     95. D(H  18,C   5,C   4,H  16)     99.6769         0.012015   
     96. D(H  18,C   5,C   4,H  15)    -21.8076         0.012015   
     97. D(H  18,C   5,C   4,C   3)   -145.3620         0.012015   
     98. D(H  17,C   5,C   4,H  16)   -138.2251         0.012015   
     99. D(H  17,C   5,C   4,H  15)    100.2903         0.012015   
    100. D(H  17,C   5,C   4,C   3)    -23.2640         0.012015   
    -----------------------------------------------------------------

Number of atoms                         .... 20
Number of degrees of freedom            .... 100

Time needed for optimization step       :     1.30 sec

         *************************************************************
         *                GEOMETRY OPTIMIZATION CYCLE   1            *
         *************************************************************
---------------------------------
CARTESIAN COORDINATES (ANGSTROEM)
---------------------------------
  C     -3.018048   -0.107139    0.048174
  C     -1.666729    0.534738    0.233651
  C     -0.646255   -0.557306    0.440454
  C      0.731704   -0.033939    0.725321
  C      1.663203   -0.310072   -0.449571
  C      2.950623    0.431401   -0.132200
  H     -3.162519   -0.800406    0.907741
  H     -3.116533   -0.635126   -0.925289
  H     -3.795722    0.687652    0.168784
  H     -1.723275    1.154038    1.152328
  H     -1.366150    1.171748   -0.610722
  H     -1.009653   -1.170738    1.303410
  H     -0.584538   -1.191583   -0.470105
  H      0.751713    1.053769    0.949878
  H      1.179172   -0.576536    1.595970
  H      1.228405   -0.016084   -1.413886
  H      1.816918   -1.413815   -0.470653
  H      2.778333    1.274108    0.579845
  H      3.377402    0.803616   -1.081681
  H      3.611946   -0.298325    0.388388

----------------------------
CARTESIAN COORDINATES (A.U.)
----------------------------
  NO LB      ZA    FRAG     MASS         X           Y           Z
   0 C     6.0000    0    12.011   -5.703284   -0.202463    0.091036
   1 C     6.0000    0    12.011   -3.149661    1.010508    0.441536
   2 C     6.0000    0    12.011   -1.221245   -1.053156    0.832337
   3 C     6.0000    0    12.011    1.382720   -0.064135    1.370658
   4 C     6.0000    0    12.011    3.142998   -0.585951   -0.849566
   5 C     6.0000    0    12.011    5.575869    0.815230   -0.249822
   6 H     1.0000    0     1.008   -5.976295   -1.512548    1.715382
   7 H     1.0000    0     1.008   -5.889394   -1.200214   -1.748543
   8 H     1.0000    0     1.008   -7.172875    1.299474    0.318956
   9 H     1.0000    0     1.008   -3.256518    2.180816    2.177584
  10 H     1.0000    0     1.008   -2.581649    2.214283   -1.154097
  11 H     1.0000    0     1.008   -1.907968   -2.212374    2.463088
  12 H     1.0000    0     1.008   -1.104617   -2.251766   -0.888370
  13 H     1.0000    0     1.008    1.420532    1.991335    1.795009
  14 H     1.0000    0     1.008    2.228312   -1.089495    3.015946
  15 H     1.0000    0     1.008    2.321349   -0.030394   -2.671857
  16 H     1.0000    0     1.008    3.433477   -2.671723   -0.889405
  17 H     1.0000    0     1.008    5.250288    2.407715    1.095748
  18 H     1.0000    0     1.008    6.382365    1.518614   -2.044081
  19 H     1.0000    0     1.008    6.825589   -0.563753    0.733947

--------------------------------
INTERNAL COORDINATES (ANGSTROEM)
--------------------------------
 C      0   0   0     0.000000000000     0.00000000     0.00000000
 C      1   0   0     1.507471671515     0.00000000     0.00000000
 C      2   1   0     1.508872016912   108.35794489     0.00000000
 C      3   2   1     1.501277199607   113.23225121   183.69928594
 C      4   3   2     1.524569130067   110.57499993   249.58680045
 C      5   4   3     1.519196109056   105.56810792   172.09444083
 H      1   2   3     1.113708413643   106.64099482    52.08701559
 H      1   2   3     1.111800242743   112.91364823   289.12467652
 H      1   2   3     1.118488424641   107.90451405   165.13610177
 H      2   1   3     1.109368004967   107.09141705   242.59448816
 H      2   1   3     1.099588667853   113.40514325   122.24800962
 H      3   2   1     1.119397151579   106.42249304   304.72094421
 H      3   2   1     1.111410812121   109.77375020    63.35245086
 H      4   3   2     1.110826223851   113.34400926    12.05040545
 H      4   3   2     1.119226874514   110.21599614   133.31697393
 H      5   4   3     1.097898749509   112.73095089    48.46147838
 H      5   4   3     1.114594707505   106.15264766   290.84517443
 H      6   5   4     1.116623040231   111.76509343   336.73602027
 H      6   5   4     1.105530863625   108.18280964   214.63804281
 H      6   5   4     1.113938962039   106.32038678    92.84060088

---------------------------
INTERNAL COORDINATES (A.U.)
---------------------------
 C      0   0   0     0.000000000000     0.00000000     0.00000000
 C      1   0   0     2.848708613807     0.00000000     0.00000000
 C      2   1   0     2.851354883102   108.35794489     0.00000000
 C      3   2   1     2.837002758357   113.23225121   183.69928594
 C      4   3   2     2.881018128058   110.57499993   249.58680045
 C      5   4   3     2.870864589834   105.56810792   172.09444083
 H      1   2   3     2.104603894829   106.64099482    52.08701559
 H      1   2   3     2.100997974411   112.91364823   289.12467652
 H      1   2   3     2.113636806533   107.90451405   165.13610177
 H      2   1   3     2.096401711123   107.09141705   242.59448816
 H      2   1   3     2.077921442205   113.40514325   122.24800962
 H      3   2   1     2.115354051577   106.42249304   304.72094421
 H      3   2   1     2.100262057187   109.77375020    63.35245086
 H      4   3   2     2.099157345455   113.34400926    12.05040545
 H      4   3   2     2.115032274556   110.21599614   133.31697393
 H      5   4   3     2.074727959346   112.73095089    48.46147838
 H      5   4   3     2.106278747502   106.15264766   290.84517443
 H      6   5   4     2.110111740863   111.76509343   336.73602027
 H      6   5   4     2.089150564848   108.18280964   214.63804281
 H      6   5   4     2.105039568159   106.32038678    92.84060088

---------------------
BASIS SET INFORMATION
---------------------
There are 2 groups of distinct atoms

 Group   1 Type C   : 7s4p1d contracted to 3s2p1d pattern {511/31/1}
 Group   2 Type H   : 4s contracted to 2s pattern {31}

Atom   0C    basis set group =>   1
Atom   1C    basis set group =>   1
Atom   2C    basis set group =>   1
Atom   3C    basis set group =>   1
Atom   4C    basis set group =>   1
Atom   5C    basis set group =>   1
Atom   6H    basis set group =>   2
Atom   7H    basis set group =>   2
Atom   8H    basis set group =>   2
Atom   9H    basis set group =>   2
Atom  10H    basis set group =>   2
Atom  11H    basis set group =>   2
Atom  12H    basis set group =>   2
Atom  13H    basis set group =>   2
Atom  14H    basis set group =>   2
Atom  15H    basis set group =>   2
Atom  16H    basis set group =>   2
Atom  17H    basis set group =>   2
Atom  18H    basis set group =>   2
Atom  19H    basis set group =>   2
---------------------------------
AUXILIARY/J BASIS SET INFORMATION
---------------------------------
There are 2 groups of distinct atoms

 Group   1 Type C   : 12s5p4d2f1g contracted to 6s4p3d1f1g pattern {711111/2111/211/2/1}
 Group   2 Type H   : 5s2p1d contracted to 3s1p1d pattern {311/2/1}

Atom   0C    basis set group =>   1
Atom   1C    basis set group =>   1
Atom   2C    basis set group =>   1
Atom   3C    basis set group =>   1
Atom   4C    basis set group =>   1
Atom   5C    basis set group =>   1
Atom   6H    basis set group =>   2
Atom   7H    basis set group =>   2
Atom   8H    basis set group =>   2
Atom   9H    basis set group =>   2
Atom  10H    basis set group =>   2
Atom  11H    basis set group =>   2
Atom  12H    basis set group =>   2
Atom  13H    basis set group =>   2
Atom  14H    basis set group =>   2
Atom  15H    basis set group =>   2
Atom  16H    basis set group =>   2
Atom  17H    basis set group =>   2
Atom  18H    basis set group =>   2
Atom  19H    basis set group =>   2
------------------------------------------------------------------------------
                           ORCA GTO INTEGRAL CALCULATION
------------------------------------------------------------------------------

                         BASIS SET STATISTICS AND STARTUP INFO

 # of primitive gaussian shells          ...  128
 # of primitive gaussian functions       ...  200
 # of contracted shells                  ...   64
 # of contracted basis functions         ...  112
 Highest angular momentum                ...    2
 Maximum contraction depth               ...    5
 Integral package used                   ... LIBINT
 Integral threshhold            Thresh   ...  1.000e-12
 Primitive cut-off              TCut     ...  1.000e-14


------------------------------ INTEGRAL EVALUATION ----------------------------


 * One electron integrals 
 Pre-screening matrix                    ... done
 Shell pair data                         ... done (   0.001 sec)

-------------------------------------------------------------------------------
                                 ORCA SCF
-------------------------------------------------------------------------------

------------
SCF SETTINGS
------------
Hamiltonian:
 Density Functional     Method          .... DFT(GTOs)
 Exchange Functional    Exchange        .... B88
   X-Alpha parameter    XAlpha          ....  0.666667
   Becke's b parameter  XBeta           ....  0.004200
 Correlation Functional Correlation     .... LYP
 LDA part of GGA corr.  LDAOpt          .... VWN-5
 Gradients option       PostSCFGGA      .... off
 Hybrid DFT is turned on
   Fraction HF Exchange ScalHFX         ....  0.200000
   Scaling of DF-GGA-X  ScalDFX         ....  0.720000
   Scaling of DF-GGA-C  ScalDFC         ....  0.810000
   Scaling of DF-LDA-C  ScalLDAC        ....  1.000000
   Perturbative correction              ....  0.000000
   Density functional embedding theory  .... OFF
   NL short-range parameter             ....  4.800000


General Settings:
 Integral files         IntName         .... orca4
 Hartree-Fock type      HFTyp           .... UHF
 Total Charge           Charge          ....    0
 Multiplicity           Mult            ....    1
 Number of Electrons    NEL             ....   50
 Basis Dimension        Dim             ....  112
 Nuclear Repulsion      ENuc            ....    249.2541039809 Eh

Convergence Acceleration:
 DIIS                   CNVDIIS         .... on
   Start iteration      DIISMaxIt       ....    12
   Startup error        DIISStart       ....  0.200000
   # of expansion vecs  DIISMaxEq       ....     5
   Bias factor          DIISBfac        ....   1.050
   Max. coefficient     DIISMaxC        ....  10.000
 Newton-Raphson         CNVNR           .... off
 SOSCF                  CNVSOSCF        .... off
 Level Shifting         CNVShift        .... on
   Level shift para.    LevelShift      ....    0.2500
   Turn off err/grad.   ShiftErr        ....    0.0010
 Zerner damping         CNVZerner       .... off
 Static damping         CNVDamp         .... on
   Fraction old density DampFac         ....    0.7000
   Max. Damping (<1)    DampMax         ....    0.9800
   Min. Damping (>=0)   DampMin         ....    0.0000
   Turn off err/grad.   DampErr         ....    0.1000
 Fernandez-Rico         CNVRico         .... off

SCF Procedure:
 Maximum # iterations   MaxIter         ....   500
 SCF integral mode      SCFMode         .... Direct
   Integral package                     .... LIBINT
 Reset frequency        DirectResetFreq ....    20
 Integral Threshold     Thresh          ....  1.000e-12 Eh
 Primitive CutOff       TCut            ....  1.000e-14 Eh

Convergence Tolerance:
 Convergence Check Mode ConvCheckMode   .... Total+1el-Energy
 Convergence forced     ConvForced      .... 0
 Energy Change          TolE            ....  1.000e-09 Eh
 1-El. energy change                    ....  1.000e-06 Eh
 DIIS Error             TolErr          ....  1.000e-08


Diagonalization of the overlap matrix:
Smallest eigenvalue                        ... 1.308e-03
Time for diagonalization                   ...    0.002 sec
Threshold for overlap eigenvalues          ... 1.000e-08
Number of eigenvalues below threshold      ... 0
Time for construction of square roots      ...    3.979 sec
Total time needed                          ...    3.982 sec

-------------------
DFT GRID GENERATION
-------------------

General Integration Accuracy     IntAcc      ...  4.340
Radial Grid Type                 RadialGrid  ... Gauss-Chebyshev
Angular Grid (max. acc.)         AngularGrid ... Lebedev-110
Angular grid pruning method      GridPruning ... 3 (G Style)
Weight generation scheme         WeightScheme... Becke
Basis function cutoff            BFCut       ...    1.0000e-12
Integration weight cutoff        WCut        ...    1.0000e-14
Grids for H and He will be reduced by one unit

# of grid points (after initial pruning)     ...  21052 (   0.0 sec)
# of grid points (after weights+screening)   ...  19333 (   0.1 sec)
nearest neighbour list constructed           ...    0.0 sec
Grid point re-assignment to atoms done       ...    0.0 sec
Grid point division into batches done        ...    0.0 sec
Reduced shell lists constructed in    0.1 sec

Total number of grid points                  ...    19333
Total number of batches                      ...      312
Average number of points per batch           ...       61
Average number of grid points per atom       ...      967
Average number of shells per batch           ...    50.51 (78.92%)
Average number of basis functions per batch  ...    87.05 (77.72%)
Average number of large shells per batch     ...    41.42 (82.01%)
Average number of large basis fcns per batch ...    71.43 (82.05%)
Maximum spatial batch extension              ...  19.25, 22.17, 21.67 au
Average spatial batch extension              ...   3.31,  3.70,  3.65 au

Time for grid setup =    4.042 sec

------------------------------
INITIAL GUESS: MODEL POTENTIAL
------------------------------
Loading Hartree-Fock densities                     ... done
Calculating cut-offs                               ... done
Setting up the integral package                    ... done
Initializing the effective Hamiltonian             ... done
Starting the Coulomb interaction                   ... done (   0.1 sec)
Reading the grid                                   ... done
Mapping shells                                     ... done
Starting the XC term evaluation                    ... done (   0.2 sec)
  promolecular density results
     # of electrons  =     49.998767160
     EX              =    -35.006332669
     EC              =     -1.576083010
     EX+EC           =    -36.582415679
Transforming the Hamiltonian                       ... done (   0.0 sec)
Diagonalizing the Hamiltonian                      ... done (   0.0 sec)
Back transforming the eigenvectors                 ... done (   0.0 sec)
Now organizing SCF variables                       ... done
                      ------------------
                      INITIAL GUESS DONE (   4.4 sec)
                      ------------------
--------------
SCF ITERATIONS
--------------
ITER       Energy         Delta-E        Max-DP      RMS-DP      [F,P]     Damp
               ***  Starting incremental Fock matrix formation  ***
  0   -236.4278178665   0.000000000000 0.04184877  0.00182569  0.1727675 0.7000
  1   -236.5441718480  -0.116353981489 0.02580457  0.00129856  0.0897621 0.7000
                               ***Turning on DIIS***
  2   -236.5904213681  -0.046249520057 0.03581882  0.00212185  0.0333575 0.0000
  3   -236.6524553667  -0.062033998577 0.01706259  0.00087641  0.0495475 0.0000
  4   -236.6732872739  -0.020831907189 0.00352243  0.00026772  0.0112650 0.0000
  5   -236.6743909195  -0.001103645637 0.00134531  0.00009425  0.0022165 0.0000
  6   -236.6744558696  -0.000064950076 0.00066160  0.00004910  0.0007054 0.0000
  7   -236.6744612613  -0.000005391764 0.00019456  0.00000525  0.0003346 0.0000
  8   -236.6744616967  -0.000000435398 0.00003550  0.00000148  0.0000597 0.0000
  9   -236.6744617187  -0.000000021954 0.00000931  0.00000046  0.0000139 0.0000
 10   -236.6744617200  -0.000000001330 0.00000428  0.00000016  0.0000069 0.0000
 11   -236.6744617203  -0.000000000324 0.00000112  0.00000006  0.0000023 0.0000
 12   -236.6744617204  -0.000000000037 0.00000023  0.00000001  0.0000004 0.0000
 13   -236.6744617204   0.000000000004 0.00000012  0.00000000  0.0000002 0.0000
                 **** Energy Check signals convergence ****

 Fermi smearing  (ALPHA): E(HOMO(Eh)) = -0.292751 MUE = -0.117788 gap=   9.522 eV
 Fermi smearing   (BETA): E(HOMO(Eh)) = -0.292751 MUE = -0.117788 gap=   9.522 eV

N_FOD(alpha) =  0.000000
 N_FOD(beta) =  0.000000
       N_FOD =  0.000000

               *****************************************************
               *                     SUCCESS                       *
               *           SCF CONVERGED AFTER  14 CYCLES          *
               *****************************************************

Setting up the final grid:

General Integration Accuracy     IntAcc      ...  4.670
Radial Grid Type                 RadialGrid  ... Gauss-Chebyshev
Angular Grid (max. acc.)         AngularGrid ... Lebedev-302
Angular grid pruning method      GridPruning ... 3 (G Style)
Weight generation scheme         WeightScheme... Becke
Basis function cutoff            BFCut       ...    1.0000e-12
Integration weight cutoff        WCut        ...    1.0000e-14
Grids for H and He will be reduced by one unit

# of grid points (after initial pruning)     ...  84788 (   0.0 sec)
# of grid points (after weights+screening)   ...  76586 (   0.2 sec)
nearest neighbour list constructed           ...    0.0 sec
Grid point re-assignment to atoms done       ...    0.0 sec
Grid point division into batches done        ...    0.2 sec
Reduced shell lists constructed in    0.6 sec

Total number of grid points                  ...    76586
Total number of batches                      ...     1207
Average number of points per batch           ...       63
Average number of grid points per atom       ...     3829
Average number of shells per batch           ...    46.96 (73.37%)
Average number of basis functions per batch  ...    80.60 (71.97%)
Average number of large shells per batch     ...    38.11 (81.16%)
Average number of large basis fcns per batch ...    65.45 (81.21%)
Maximum spatial batch extension              ...  19.06, 17.61, 20.43 au
Average spatial batch extension              ...   2.31,  2.44,  2.39 au

Final grid set up in    2.3 sec
Final integration                            ... done (   5.9 sec)
Change in XC energy                          ...     0.000179778
Integrated number of electrons               ...    50.000199971
Previous integrated no of electrons          ...    50.002635086

----------------
TOTAL SCF ENERGY
----------------

Total Energy       :         -236.67428194 Eh           -6440.23463 eV

Components:
Nuclear Repulsion  :          249.25410398 Eh            6782.54899 eV
Electronic Energy  :         -485.92838592 Eh          -13222.78361 eV
One Electron Energy:         -810.31838883 Eh          -22049.88435 eV
Two Electron Energy:          324.39000291 Eh            8827.10074 eV

Virial components:
Potential Energy   :         -470.89670775 Eh          -12813.75086 eV
Kinetic Energy     :          234.22242581 Eh            6373.51623 eV
Virial Ratio       :            2.01046807


DFT components:
N(Alpha)           :       25.000099985359 electrons
N(Beta)            :       25.000099985359 electrons
N(Total)           :       50.000199970717 electrons
E(X)               :      -28.510378726263 Eh       
E(C)               :       -1.870794170624 Eh       
E(XC)              :      -30.381172896887 Eh       
DFET-embed. en.    :        0.000000000000 Eh       

---------------
SCF CONVERGENCE
---------------

  Last Energy change         ...   -2.9701e-11  Tolerance :   1.0000e-09
  Last MAX-Density change    ...    2.8967e-08  Tolerance :   1.0000e-08
  Last RMS-Density change    ...    9.7216e-10  Tolerance :   1.0000e-09
  Last DIIS Error            ...    5.1076e-08  Tolerance :   1.0000e-08

             **** THE GBW FILE WAS UPDATED (orca4.gbw) ****
             **** DENSITY FILE WAS UPDATED (orca4.scfp) ****
             **** ENERGY FILE WAS UPDATED (orca4.en.tmp) ****
             **** THE GBW FILE WAS UPDATED (orca4.gbw) ****
             **** DENSITY FILE WAS UPDATED (orca4.scfp) ****
----------------
ORBITAL ENERGIES
----------------
                 SPIN UP ORBITALS
  NO   OCC          E(Eh)            E(eV) 
   0   1.0000     -10.167524      -276.6724 
   1   1.0000     -10.167361      -276.6680 
   2   1.0000     -10.165101      -276.6064 
   3   1.0000     -10.163922      -276.5744 
   4   1.0000     -10.163869      -276.5729 
   5   1.0000     -10.163245      -276.5560 
   6   1.0000      -0.804015       -21.8784 
   7   1.0000      -0.762148       -20.7391 
   8   1.0000      -0.694297       -18.8928 
   9   1.0000      -0.616590       -16.7783 
  10   1.0000      -0.572178       -15.5697 
  11   1.0000      -0.561565       -15.2810 
  12   1.0000      -0.472096       -12.8464 
  13   1.0000      -0.458518       -12.4769 
  14   1.0000      -0.436775       -11.8852 
  15   1.0000      -0.412347       -11.2205 
  16   1.0000      -0.401276       -10.9193 
  17   1.0000      -0.377151       -10.2628 
  18   1.0000      -0.365133        -9.9358 
  19   1.0000      -0.352209        -9.5841 
  20   1.0000      -0.340776        -9.2730 
  21   1.0000      -0.332104        -9.0370 
  22   1.0000      -0.324984        -8.8433 
  23   1.0000      -0.305022        -8.3001 
  24   1.0000      -0.292751        -7.9661 
  25   0.0000       0.057175         1.5558 
  26   0.0000       0.066357         1.8057 
  27   0.0000       0.081755         2.2247 
  28   0.0000       0.083560         2.2738 
  29   0.0000       0.104101         2.8327 
  30   0.0000       0.108666         2.9570 
  31   0.0000       0.120084         3.2677 
  32   0.0000       0.141240         3.8433 
  33   0.0000       0.148491         4.0406 
  34   0.0000       0.150708         4.1010 
  35   0.0000       0.168423         4.5830 
  36   0.0000       0.175723         4.7817 
  37   0.0000       0.187496         5.1020 
  38   0.0000       0.197951         5.3865 
  39   0.0000       0.223285         6.0759 
  40   0.0000       0.242907         6.6098 
  41   0.0000       0.257124         6.9967 
  42   0.0000       0.273659         7.4466 
  43   0.0000       0.297448         8.0940 
  44   0.0000       0.424409        11.5488 
  45   0.0000       0.434190        11.8149 
  46   0.0000       0.442790        12.0489 
  47   0.0000       0.450044        12.2463 
  48   0.0000       0.459686        12.5087 
  49   0.0000       0.461804        12.5663 
  50   0.0000       0.507660        13.8141 
  51   0.0000       0.542179        14.7534 
  52   0.0000       0.570016        15.5109 
  53   0.0000       0.602460        16.3938 
  54   0.0000       0.637989        17.3606 
  55   0.0000       0.656508        17.8645 
  56   0.0000       0.658425        17.9167 
  57   0.0000       0.667267        18.1573 
  58   0.0000       0.669229        18.2106 
  59   0.0000       0.675186        18.3727 
  60   0.0000       0.689335        18.7578 
  61   0.0000       0.696419        18.9505 
  62   0.0000       0.700748        19.0683 
  63   0.0000       0.704875        19.1806 
  64   0.0000       0.708356        19.2754 
  65   0.0000       0.712807        19.3965 
  66   0.0000       0.715910        19.4809 
  67   0.0000       0.722423        19.6581 
  68   0.0000       0.724956        19.7271 
  69   0.0000       0.725814        19.7504 
  70   0.0000       0.743471        20.2309 
  71   0.0000       0.748501        20.3677 
  72   0.0000       0.753732        20.5101 
  73   0.0000       0.774966        21.0879 
  74   0.0000       0.783447        21.3187 
  75   0.0000       0.882347        24.0099 
  76   0.0000       0.897050        24.4100 
  77   0.0000       0.985664        26.8213 
  78   0.0000       1.041587        28.3430 
  79   0.0000       1.047494        28.5038 
  80   0.0000       1.122339        30.5404 
  81   0.0000       1.182522        32.1780 
  82   0.0000       1.381149        37.5830 
  83   0.0000       1.434958        39.0472 
  84   0.0000       1.591440        43.3053 
  85   0.0000       1.617088        44.0032 
  86   0.0000       1.770944        48.1898 
  87   0.0000       1.796221        48.8777 
  88   0.0000       1.842548        50.1383 
  89   0.0000       1.868361        50.8407 
  90   0.0000       1.887081        51.3501 
  91   0.0000       1.919856        52.2419 
  92   0.0000       1.946116        52.9565 
  93   0.0000       1.947410        52.9917 
  94   0.0000       1.998935        54.3938 
  95   0.0000       2.036597        55.4186 
  96   0.0000       2.074125        56.4398 
  97   0.0000       2.101825        57.1936 
  98   0.0000       2.113408        57.5087 
  99   0.0000       2.167292        58.9750 
 100   0.0000       2.186237        59.4905 
 101   0.0000       2.228933        60.6523 
 102   0.0000       2.281605        62.0856 
 103   0.0000       2.292327        62.3774 
 104   0.0000       2.345141        63.8145 
 105   0.0000       2.361624        64.2631 
 106   0.0000       2.462471        67.0073 
 107   0.0000       2.487320        67.6834 
 108   0.0000       2.556217        69.5582 
 109   0.0000       2.644839        71.9697 
 110   0.0000       2.743593        74.6569 
 111   0.0000       2.821731        76.7832 

                 SPIN DOWN ORBITALS
  NO   OCC          E(Eh)            E(eV) 
   0   1.0000     -10.167524      -276.6724 
   1   1.0000     -10.167361      -276.6680 
   2   1.0000     -10.165101      -276.6064 
   3   1.0000     -10.163922      -276.5744 
   4   1.0000     -10.163869      -276.5729 
   5   1.0000     -10.163245      -276.5560 
   6   1.0000      -0.804015       -21.8784 
   7   1.0000      -0.762148       -20.7391 
   8   1.0000      -0.694297       -18.8928 
   9   1.0000      -0.616590       -16.7783 
  10   1.0000      -0.572178       -15.5697 
  11   1.0000      -0.561565       -15.2810 
  12   1.0000      -0.472096       -12.8464 
  13   1.0000      -0.458518       -12.4769 
  14   1.0000      -0.436775       -11.8852 
  15   1.0000      -0.412347       -11.2205 
  16   1.0000      -0.401276       -10.9193 
  17   1.0000      -0.377151       -10.2628 
  18   1.0000      -0.365133        -9.9358 
  19   1.0000      -0.352209        -9.5841 
  20   1.0000      -0.340776        -9.2730 
  21   1.0000      -0.332104        -9.0370 
  22   1.0000      -0.324984        -8.8433 
  23   1.0000      -0.305022        -8.3001 
  24   1.0000      -0.292751        -7.9661 
  25   0.0000       0.057175         1.5558 
  26   0.0000       0.066357         1.8057 
  27   0.0000       0.081755         2.2247 
  28   0.0000       0.083560         2.2738 
  29   0.0000       0.104101         2.8327 
  30   0.0000       0.108666         2.9570 
  31   0.0000       0.120084         3.2677 
  32   0.0000       0.141240         3.8433 
  33   0.0000       0.148491         4.0406 
  34   0.0000       0.150708         4.1010 
  35   0.0000       0.168423         4.5830 
  36   0.0000       0.175723         4.7817 
  37   0.0000       0.187496         5.1020 
  38   0.0000       0.197951         5.3865 
  39   0.0000       0.223285         6.0759 
  40   0.0000       0.242907         6.6098 
  41   0.0000       0.257124         6.9967 
  42   0.0000       0.273659         7.4466 
  43   0.0000       0.297448         8.0940 
  44   0.0000       0.424409        11.5488 
  45   0.0000       0.434190        11.8149 
  46   0.0000       0.442790        12.0489 
  47   0.0000       0.450044        12.2463 
  48   0.0000       0.459686        12.5087 
  49   0.0000       0.461804        12.5663 
  50   0.0000       0.507660        13.8141 
  51   0.0000       0.542179        14.7534 
  52   0.0000       0.570016        15.5109 
  53   0.0000       0.602460        16.3938 
  54   0.0000       0.637989        17.3606 
  55   0.0000       0.656508        17.8645 
  56   0.0000       0.658425        17.9167 
  57   0.0000       0.667267        18.1573 
  58   0.0000       0.669229        18.2106 
  59   0.0000       0.675186        18.3727 
  60   0.0000       0.689335        18.7578 
  61   0.0000       0.696419        18.9505 
  62   0.0000       0.700748        19.0683 
  63   0.0000       0.704875        19.1806 
  64   0.0000       0.708356        19.2754 
  65   0.0000       0.712807        19.3965 
  66   0.0000       0.715910        19.4809 
  67   0.0000       0.722423        19.6581 
  68   0.0000       0.724956        19.7271 
  69   0.0000       0.725814        19.7504 
  70   0.0000       0.743471        20.2309 
  71   0.0000       0.748501        20.3677 
  72   0.0000       0.753732        20.5101 
  73   0.0000       0.774966        21.0879 
  74   0.0000       0.783447        21.3187 
  75   0.0000       0.882347        24.0099 
  76   0.0000       0.897050        24.4100 
  77   0.0000       0.985664        26.8213 
  78   0.0000       1.041587        28.3430 
  79   0.0000       1.047494        28.5038 
  80   0.0000       1.122339        30.5404 
  81   0.0000       1.182522        32.1780 
  82   0.0000       1.381149        37.5830 
  83   0.0000       1.434958        39.0472 
  84   0.0000       1.591440        43.3053 
  85   0.0000       1.617088        44.0032 
  86   0.0000       1.770944        48.1898 
  87   0.0000       1.796221        48.8777 
  88   0.0000       1.842548        50.1383 
  89   0.0000       1.868361        50.8407 
  90   0.0000       1.887081        51.3501 
  91   0.0000       1.919856        52.2419 
  92   0.0000       1.946116        52.9565 
  93   0.0000       1.947410        52.9917 
  94   0.0000       1.998935        54.3938 
  95   0.0000       2.036597        55.4186 
  96   0.0000       2.074125        56.4398 
  97   0.0000       2.101825        57.1936 
  98   0.0000       2.113408        57.5087 
  99   0.0000       2.167292        58.9750 
 100   0.0000       2.186237        59.4905 
 101   0.0000       2.228933        60.6523 
 102   0.0000       2.281605        62.0856 
 103   0.0000       2.292327        62.3774 
 104   0.0000       2.345141        63.8145 
 105   0.0000       2.361624        64.2631 
 106   0.0000       2.462471        67.0073 
 107   0.0000       2.487320        67.6834 
 108   0.0000       2.556217        69.5582 
 109   0.0000       2.644839        71.9697 
 110   0.0000       2.743593        74.6569 
 111   0.0000       2.821731        76.7832 

                    ********************************
                    * MULLIKEN POPULATION ANALYSIS *
                    ********************************

------------------------------------------
FOD BASED MULLIKEN REDUCED ORBITAL CHARGES
------------------------------------------
  0 C s       :    -0.000000  s :    -0.000000
      pz      :     0.000000  p :     0.000000
      px      :     0.000000
      py      :     0.000000
      dz2     :     0.000000  d :     0.000000
      dxz     :     0.000000
      dyz     :     0.000000
      dx2y2   :     0.000000
      dxy     :     0.000000
  1 C s       :    -0.000000  s :    -0.000000
      pz      :     0.000000  p :     0.000000
      px      :     0.000000
      py      :     0.000000
      dz2     :     0.000000  d :     0.000000
      dxz     :     0.000000
      dyz     :     0.000000
      dx2y2   :     0.000000
      dxy     :     0.000000
  2 C s       :    -0.000000  s :    -0.000000
      pz      :     0.000000  p :     0.000000
      px      :     0.000000
      py      :     0.000000
      dz2     :     0.000000  d :     0.000000
      dxz     :     0.000000
      dyz     :     0.000000
      dx2y2   :     0.000000
      dxy     :     0.000000
  3 C s       :    -0.000000  s :    -0.000000
      pz      :     0.000000  p :     0.000000
      px      :     0.000000
      py      :     0.000000
      dz2     :     0.000000  d :     0.000000
      dxz     :     0.000000
      dyz     :     0.000000
      dx2y2   :     0.000000
      dxy     :     0.000000
  4 C s       :    -0.000000  s :    -0.000000
      pz      :     0.000000  p :     0.000000
      px      :     0.000000
      py      :     0.000000
      dz2     :     0.000000  d :     0.000000
      dxz     :     0.000000
      dyz     :     0.000000
      dx2y2   :     0.000000
      dxy     :     0.000000
  5 C s       :    -0.000000  s :    -0.000000
      pz      :     0.000000  p :     0.000000
      px      :     0.000000
      py      :     0.000000
      dz2     :     0.000000  d :     0.000000
      dxz     :     0.000000
      dyz     :     0.000000
      dx2y2   :     0.000000
      dxy     :     0.000000
  6 H s       :     0.000000  s :     0.000000
  7 H s       :     0.000000  s :     0.000000
  8 H s       :     0.000000  s :     0.000000
  9 H s       :     0.000000  s :     0.000000
 10 H s       :     0.000000  s :     0.000000
 11 H s       :     0.000000  s :     0.000000
 12 H s       :     0.000000  s :     0.000000
 13 H s       :     0.000000  s :     0.000000
 14 H s       :     0.000000  s :     0.000000
 15 H s       :     0.000000  s :     0.000000
 16 H s       :     0.000000  s :     0.000000
 17 H s       :     0.000000  s :     0.000000
 18 H s       :     0.000000  s :     0.000000
 19 H s       :     0.000000  s :     0.000000


                     *******************************
                     * LOEWDIN POPULATION ANALYSIS *
                     *******************************

-------------------------------------------
LOEWDIN ATOMIC CHARGES AND SPIN POPULATIONS
-------------------------------------------
   0 C :   -0.313235    0.000000
   1 C :   -0.221512    0.000000
   2 C :   -0.212922    0.000000
   3 C :   -0.211675    0.000000
   4 C :   -0.223382    0.000000
   5 C :   -0.318192    0.000000
   6 H :    0.108835    0.000000
   7 H :    0.110009    0.000000
   8 H :    0.107614    0.000000
   9 H :    0.106208    0.000000
  10 H :    0.105917    0.000000
  11 H :    0.103058    0.000000
  12 H :    0.107048    0.000000
  13 H :    0.102821    0.000000
  14 H :    0.106040    0.000000
  15 H :    0.101601    0.000000
  16 H :    0.107619    0.000000
  17 H :    0.108905    0.000000
  18 H :    0.111852    0.000000
  19 H :    0.113391    0.000000

----------------------------------------------------
LOEWDIN REDUCED ORBITAL CHARGES AND SPIN POPULATIONS
----------------------------------------------------
CHARGE
  0 C s       :     2.953655  s :     2.953655
      pz      :     1.104110  p :     3.284386
      px      :     1.078902
      py      :     1.101374
      dz2     :     0.015981  d :     0.075194
      dxz     :     0.005750
      dyz     :     0.021270
      dx2y2   :     0.010366
      dxy     :     0.021827
  1 C s       :     2.903606  s :     2.903606
      pz      :     1.087028  p :     3.221579
      px      :     1.055811
      py      :     1.078741
      dz2     :     0.014771  d :     0.096327
      dxz     :     0.010212
      dyz     :     0.028749
      dx2y2   :     0.017136
      dxy     :     0.025459
  2 C s       :     2.905900  s :     2.905900
      pz      :     1.080103  p :     3.212278
      px      :     1.053283
      py      :     1.078892
      dz2     :     0.013937  d :     0.094743
      dxz     :     0.012870
      dyz     :     0.026456
      dx2y2   :     0.018198
      dxy     :     0.023282
  3 C s       :     2.910188  s :     2.910188
      pz      :     1.074031  p :     3.207511
      px      :     1.052210
      py      :     1.081270
      dz2     :     0.016801  d :     0.093977
      dxz     :     0.023596
      dyz     :     0.013722
      dx2y2   :     0.025836
      dxy     :     0.014022
  4 C s       :     2.911101  s :     2.911101
      pz      :     1.076454  p :     3.219553
      px      :     1.059995
      py      :     1.083105
      dz2     :     0.023506  d :     0.092727
      dxz     :     0.024184
      dyz     :     0.007643
      dx2y2   :     0.022743
      dxy     :     0.014651
  5 C s       :     2.954982  s :     2.954982
      pz      :     1.102251  p :     3.289720
      px      :     1.087635
      py      :     1.099834
      dz2     :     0.009001  d :     0.073489
      dxz     :     0.015188
      dyz     :     0.020907
      dx2y2   :     0.010841
      dxy     :     0.017553
  6 H s       :     0.891165  s :     0.891165
  7 H s       :     0.889991  s :     0.889991
  8 H s       :     0.892386  s :     0.892386
  9 H s       :     0.893792  s :     0.893792
 10 H s       :     0.894083  s :     0.894083
 11 H s       :     0.896942  s :     0.896942
 12 H s       :     0.892952  s :     0.892952
 13 H s       :     0.897179  s :     0.897179
 14 H s       :     0.893960  s :     0.893960
 15 H s       :     0.898399  s :     0.898399
 16 H s       :     0.892381  s :     0.892381
 17 H s       :     0.891095  s :     0.891095
 18 H s       :     0.888148  s :     0.888148
 19 H s       :     0.886609  s :     0.886609

SPIN
  0 C s       :     0.000000  s :     0.000000
      pz      :     0.000000  p :     0.000000
      px      :     0.000000
      py      :     0.000000
      dz2     :     0.000000  d :     0.000000
      dxz     :     0.000000
      dyz     :     0.000000
      dx2y2   :     0.000000
      dxy     :     0.000000
  1 C s       :     0.000000  s :     0.000000
      pz      :     0.000000  p :     0.000000
      px      :     0.000000
      py      :     0.000000
      dz2     :     0.000000  d :     0.000000
      dxz     :     0.000000
      dyz     :     0.000000
      dx2y2   :     0.000000
      dxy     :     0.000000
  2 C s       :     0.000000  s :     0.000000
      pz      :     0.000000  p :     0.000000
      px      :     0.000000
      py      :     0.000000
      dz2     :     0.000000  d :     0.000000
      dxz     :     0.000000
      dyz     :     0.000000
      dx2y2   :     0.000000
      dxy     :     0.000000
  3 C s       :     0.000000  s :     0.000000
      pz      :     0.000000  p :     0.000000
      px      :     0.000000
      py      :     0.000000
      dz2     :     0.000000  d :     0.000000
      dxz     :     0.000000
      dyz     :     0.000000
      dx2y2   :     0.000000
      dxy     :     0.000000
  4 C s       :     0.000000  s :     0.000000
      pz      :     0.000000  p :     0.000000
      px      :     0.000000
      py      :     0.000000
      dz2     :     0.000000  d :     0.000000
      dxz     :     0.000000
      dyz     :     0.000000
      dx2y2   :     0.000000
      dxy     :     0.000000
  5 C s       :     0.000000  s :     0.000000
      pz      :     0.000000  p :     0.000000
      px      :     0.000000
      py      :     0.000000
      dz2     :     0.000000  d :     0.000000
      dxz     :     0.000000
      dyz     :     0.000000
      dx2y2   :     0.000000
      dxy     :     0.000000
  6 H s       :     0.000000  s :     0.000000
  7 H s       :     0.000000  s :     0.000000
  8 H s       :     0.000000  s :     0.000000
  9 H s       :     0.000000  s :     0.000000
 10 H s       :     0.000000  s :     0.000000
 11 H s       :     0.000000  s :     0.000000
 12 H s       :     0.000000  s :     0.000000
 13 H s       :     0.000000  s :     0.000000
 14 H s       :     0.000000  s :     0.000000
 15 H s       :     0.000000  s :     0.000000
 16 H s       :     0.000000  s :     0.000000
 17 H s       :     0.000000  s :     0.000000
 18 H s       :     0.000000  s :     0.000000
 19 H s       :     0.000000  s :     0.000000


                      *****************************
                      * MAYER POPULATION ANALYSIS *
                      *****************************

  NA   - Mulliken gross atomic population
  ZA   - Total nuclear charge
  QA   - Mulliken gross atomic charge
  VA   - Mayer's total valence
  BVA  - Mayer's bonded valence
  FA   - Mayer's free valence

  ATOM       NA         ZA         QA         VA         BVA        FA
  0 C      6.2276     6.0000    -0.2276     4.0013     4.0013     0.0000
  1 C      6.1772     6.0000    -0.1772     4.1699     4.1699     0.0000
  2 C      6.1364     6.0000    -0.1364     4.0885     4.0885     0.0000
  3 C      6.1438     6.0000    -0.1438     4.0816     4.0816     0.0000
  4 C      6.1945     6.0000    -0.1945     4.1434     4.1434     0.0000
  5 C      6.2332     6.0000    -0.2332     3.9898     3.9898     0.0000
  6 H      0.9163     1.0000     0.0837     0.9633     0.9633     0.0000
  7 H      0.9085     1.0000     0.0915     0.9593     0.9593     0.0000
  8 H      0.9139     1.0000     0.0861     0.9506     0.9506     0.0000
  9 H      0.9289     1.0000     0.0711     0.9453     0.9453     0.0000
 10 H      0.9241     1.0000     0.0759     0.9473     0.9473     0.0000
 11 H      0.9381     1.0000     0.0619     0.9548     0.9548     0.0000
 12 H      0.9262     1.0000     0.0738     0.9635     0.9635     0.0000
 13 H      0.9263     1.0000     0.0737     0.9658     0.9658     0.0000
 14 H      0.9340     1.0000     0.0660     0.9466     0.9466     0.0000
 15 H      0.9257     1.0000     0.0743     0.9500     0.9500     0.0000
 16 H      0.9178     1.0000     0.0822     0.9420     0.9420     0.0000
 17 H      0.9049     1.0000     0.0951     0.9647     0.9647     0.0000
 18 H      0.9104     1.0000     0.0896     0.9537     0.9537     0.0000
 19 H      0.9122     1.0000     0.0878     0.9563     0.9563     0.0000

  Mayer bond orders larger than 0.100000
B(  0-C ,  1-C ) :   1.1391 B(  0-C ,  6-H ) :   0.9550 B(  0-C ,  7-H ) :   0.9578 
B(  0-C ,  8-H ) :   0.9575 B(  1-C ,  2-C ) :   1.1460 B(  1-C ,  9-H ) :   0.9280 
B(  1-C , 10-H ) :   0.9314 B(  2-C ,  3-C ) :   1.0778 B(  2-C , 11-H ) :   0.9243 
B(  2-C , 12-H ) :   0.9328 B(  3-C ,  4-C ) :   1.1287 B(  3-C , 13-H ) :   0.9369 
B(  3-C , 14-H ) :   0.9299 B(  4-C ,  5-C ) :   1.1137 B(  4-C , 15-H ) :   0.9438 
B(  4-C , 16-H ) :   0.9362 B(  5-C , 17-H ) :   0.9608 B(  5-C , 18-H ) :   0.9597 
B(  5-C , 19-H ) :   0.9599 

-------
TIMINGS
-------

Total SCF time: 0 days 0 hours 6 min 18 sec 

Total time                  ....     378.288 sec
Sum of individual times     ....     294.102 sec  ( 77.7%)

Fock matrix formation       ....     245.613 sec  ( 64.9%)
  XC integration            ....     108.120 sec  ( 44.0% of F)
    Basis function eval.    ....       1.593 sec  (  1.5% of XC)
    Density eval.           ....       1.322 sec  (  1.2% of XC)
    XC-Functional eval.     ....       0.384 sec  (  0.4% of XC)
    XC-Potential eval.      ....       1.765 sec  (  1.6% of XC)
Diagonalization             ....       0.102 sec  (  0.0%)
Density matrix formation    ....      24.148 sec  (  6.4%)
Population analysis         ....       5.625 sec  (  1.5%)
Initial guess               ....       0.312 sec  (  0.1%)
Orbital Transformation      ....       0.000 sec  (  0.0%)
Orbital Orthonormalization  ....       0.000 sec  (  0.0%)
DIIS solution               ....      11.932 sec  (  3.2%)
Grid generation             ....       6.371 sec  (  1.7%)


-------------------------------------------------------------------------------
                          DFT DISPERSION CORRECTION                            
                                                                               
                              DFTD3 V3.1  Rev 1                                
                          USING Becke-Johnson damping                          
-------------------------------------------------------------------------------
The B3LYP functional is recognized
Active option DFTDOPT                   ...         4   

molecular C6(AA) [au] = 2517.618223 


            DFT-D V3
 parameters
 s6 scaling factor         :     1.0000 
 a1 scaling factor         :     0.3981 
 s8 scaling factor         :     1.9889 
 a2 scaling factor         :     4.4211 
 ad hoc parameters k1-k3   :    16.0000     1.3333    -4.0000 

 Edisp/kcal,au: -15.609597374847  -0.024875474164 
 E6   /kcal   :  -7.852606187 
 E8   /kcal   :  -7.756991188 
 % E8         :  49.693730091 

-------------------------   ----------------
Dispersion correction           -0.024875474
-------------------------   ----------------


-------------------------   --------------------
FINAL SINGLE POINT ENERGY      -236.699157416769
-------------------------   --------------------

------------------------------------------------------------------------------
                         ORCA SCF GRADIENT CALCULATION
------------------------------------------------------------------------------

Gradient of the Kohn-Sham DFT energy:
Kohn-Sham wavefunction type      ... UKS
Hartree-Fock exchange scaling    ...    0.200
Number of operators              ...    2
Number of atoms                  ...   20
Basis set dimensions             ...  112
Integral neglect threshold       ... 1.0e-12
Integral primitive cutoff        ... 1.0e-14

Nuclear repulsion gradient       ... done
One Electron Gradient            ... done
Pre-screening matrix             ... done
Starting the two electron gradient:
Two electron gradient done
Exchange-correlation gradient    ... done
Dispersion correction            ... done

------------------
CARTESIAN GRADIENT
------------------

   1   C   :    0.018157919   -0.013450656   -0.006939307
   2   C   :    0.001004483    0.005050742   -0.004791458
   3   C   :    0.006240568    0.006463883   -0.012401136
   4   C   :   -0.010780367    0.010661208   -0.001828333
   5   C   :   -0.001063296   -0.001235077   -0.019221989
   6   C   :   -0.011684551    0.007995480    0.004892780
   7   H   :    0.003852761    0.002034171    0.009081568
   8   H   :    0.002429459   -0.000999018   -0.005969726
   9   H   :    0.000809105    0.009378142    0.008684316
  10   H   :   -0.004376816   -0.002775580    0.003378152
  11   H   :    0.001553401   -0.005229820    0.002795365
  12   H   :   -0.002644714    0.001214515    0.009510764
  13   H   :    0.006346204    0.002932926   -0.005679445
  14   H   :    0.004910824    0.004647180   -0.001486912
  15   H   :    0.003090425   -0.009245009    0.002387088
  16   H   :    0.003882779   -0.003635498    0.002455479
  17   H   :   -0.001557773   -0.006045562    0.006714652
  18   H   :   -0.002562607    0.003114695    0.009676102
  19   H   :   -0.011209085   -0.000801856   -0.006730930
  20   H   :   -0.006398721   -0.010074864    0.005472969

Difference to translation invariance:
           :   -0.0000000000    0.0000000000    0.0000000000

Norm of the cartesian gradient     ...    0.0543817045
RMS gradient                       ...    0.0070206479
MAX gradient                       ...    0.0192219895

-------
TIMINGS
-------

Total SCF gradient time            ...       10.722 sec

One electron gradient       ....       0.080 sec  (  0.7%)
Prescreening matrices       ....       0.043 sec  (  0.4%)
Two electron gradient       ....       4.448 sec  ( 41.5%)
XC gradient                 ....       5.942 sec  ( 55.4%)
------------------------------------------------------------------------------
                         ORCA GEOMETRY RELAXATION STEP
------------------------------------------------------------------------------

Reading the OPT-File                    .... done
Getting information on internals        .... done
Copying old internal coords+grads       .... done
Making the new internal coordinates     .... (new redundants).... done
Validating the new internal coordinates .... (new redundants).... done
Calculating the B-matrix                .... done
Calculating the G,G- and P matrices     .... done
Transforming gradient to internals      .... done
Projecting the internal gradient        .... done
Number of atoms                         ....  20
Number of internal coordinates          .... 100
Current Energy                          ....  -236.699157417 Eh
Current gradient norm                   ....     0.054381705 Eh/bohr
Maximum allowed component of the step   ....  0.300
Current trust radius                    ....  0.300
Evaluating the initial hessian          ....  (Almloef) done
Projecting the Hessian                  .... done
Forming the augmented Hessian           .... done
Diagonalizing the augmented Hessian     .... done
Last element of RFO vector              ....  0.947560088
Lowest eigenvalues of augmented Hessian:
 -0.024687610  0.011723415  0.012327059  0.012951063  0.013186571
Length of the computed step             ....  0.337263738
Warning: the length of the step is outside the trust region - taking restricted step instead
The input lambda is                     ....    -0.024688
   iter:   1  x=   -0.035254  g=    2.247340 f(x)=     0.023747
   iter:   2  x=   -0.039110  g=    1.372377 f(x)=     0.005292
   iter:   3  x=   -0.039414  g=    1.192251 f(x)=     0.000362
   iter:   4  x=   -0.039416  g=    1.179895 f(x)=     0.000002
   iter:   5  x=   -0.039416  g=    1.179831 f(x)=     0.000000
   iter:   6  x=   -0.039416  g=    1.179831 f(x)=    -0.000000
The output lambda is                    ....    -0.039416 (6 iterations)
The final length of the internal step   ....  0.300000000
Converting the step to cartesian space:
 Initial RMS(Int)=    0.0300000000
Transforming coordinates:
 Iter   0:  RMS(Cart)=    0.1181562762 RMS(Int)=    0.0300496274
 Iter   1:  RMS(Cart)=    0.0030081540 RMS(Int)=    0.0014149080
 Iter   2:  RMS(Cart)=    0.0002204208 RMS(Int)=    0.0000636994
 Iter   3:  RMS(Cart)=    0.0000141447 RMS(Int)=    0.0000068773
 Iter   4:  RMS(Cart)=    0.0000011215 RMS(Int)=    0.0000003870
 Iter   5:  RMS(Cart)=    0.0000000694 RMS(Int)=    0.0000000348
done
Storing new coordinates                 .... done

                                .--------------------.
          ----------------------|Geometry convergence|-------------------------
          Item                value                   Tolerance       Converged
          ---------------------------------------------------------------------
          RMS gradient        0.0088855282            0.0001000000      NO
          MAX gradient        0.0374142235            0.0003000000      NO
          RMS step            0.0300000000            0.0020000000      NO
          MAX step            0.1094042769            0.0040000000      NO
          ........................................................
          Max(Bonds)      0.0370      Max(Angles)    6.27
          Max(Dihed)        3.68      Max(Improp)    0.00
          ---------------------------------------------------------------------

The optimization has not yet converged - more geometry cycles are needed


    ---------------------------------------------------------------------------
                         Redundant Internal Coordinates
                            (Angstroem and degrees)

        Definition                    Value    dE/dq     Step     New-Value
    ----------------------------------------------------------------------------
     1. B(C   1,C   0)                1.5075 -0.021937  0.0261    1.5335   
     2. B(C   2,C   1)                1.5089 -0.021041  0.0251    1.5340   
     3. B(C   3,C   2)                1.5013 -0.031791  0.0370    1.5383   
     4. B(C   4,C   3)                1.5246 -0.019287  0.0243    1.5488   
     5. B(C   5,C   4)                1.5192 -0.024090  0.0298    1.5490   
     6. B(H   6,C   0)                1.1137  0.005241 -0.0075    1.1062   
     7. B(H   7,C   0)                1.1118  0.005489 -0.0078    1.1040   
     8. B(H   8,C   0)                1.1185  0.007038 -0.0102    1.1082   
     9. B(H   9,C   1)                1.1094  0.001473 -0.0021    1.1073   
    10. B(H  10,C   1)                1.0996 -0.004755  0.0065    1.1061   
    11. B(H  11,C   2)                1.1194  0.007522 -0.0110    1.1084   
    12. B(H  12,C   2)                1.1114  0.003337 -0.0047    1.1067   
    13. B(H  13,C   3)                1.1108  0.004334 -0.0061    1.1047   
    14. B(H  14,C   3)                1.1192  0.007577 -0.0110    1.1082   
    15. B(H  15,C   4)                1.0979 -0.004665  0.0063    1.1042   
    16. B(H  16,C   4)                1.1146  0.005640 -0.0081    1.1065   
    17. B(H  17,C   5)                1.1166  0.008922 -0.0129    1.1037   
    18. B(H  18,C   5)                1.1055  0.001180 -0.0016    1.1039   
    19. B(H  19,C   5)                1.1139  0.005360 -0.0077    1.1063   
    20. A(H   7,C   0,H   8)          111.73  0.008208   -1.71    110.02   
    21. A(C   1,C   0,H   7)          112.91  0.000805   -0.38    112.54   
    22. A(C   1,C   0,H   6)          106.64 -0.009617    1.70    108.34   
    23. A(H   6,C   0,H   7)          111.63  0.007323   -1.60    110.03   
    24. A(H   6,C   0,H   8)          105.60  0.003705    0.25    105.85   
    25. A(C   1,C   0,H   8)          107.90 -0.011495    2.02    109.92   
    26. A(C   2,C   1,H  10)          109.86  0.005173   -0.78    109.08   
    27. A(C   0,C   1,H  10)          113.41  0.009834   -1.79    111.61   
    28. A(C   2,C   1,H   9)          108.97  0.006043   -0.44    108.53   
    29. A(C   0,C   1,H   9)          107.09  0.001127    0.61    107.70   
    30. A(H   9,C   1,H  10)          109.05 -0.001198   -1.11    107.94   
    31. A(C   0,C   1,C   2)          108.36 -0.021067    3.57    111.93   
    32. A(H  11,C   2,H  12)          109.69  0.003557   -1.60    108.09   
    33. A(C   1,C   2,C   3)          113.23 -0.002032    0.69    113.92   
    34. A(C   3,C   2,H  11)          110.04  0.000345    0.30    110.34   
    35. A(C   1,C   2,H  11)          106.42 -0.002068    0.63    107.05   
    36. A(C   1,C   2,H  12)          109.77  0.003639   -0.81    108.97   
    37. A(C   3,C   2,H  12)          107.66 -0.003138    0.68    108.34   
    38. A(C   2,C   3,C   4)          110.57 -0.016150    2.81    113.38   
    39. A(H  13,C   3,H  14)          108.07 -0.000726   -0.98    107.10   
    40. A(C   4,C   3,H  14)          105.51  0.002135    0.51    106.02   
    41. A(C   2,C   3,H  14)          110.22  0.003077   -0.17    110.04   
    42. A(C   4,C   3,H  13)          108.79  0.003523   -0.37    108.42   
    43. A(C   2,C   3,H  13)          113.34  0.008057   -1.72    111.63   
    44. A(H  15,C   4,H  16)          107.65 -0.005487   -0.85    106.80   
    45. A(C   5,C   4,H  16)          111.74  0.011678   -1.75    109.99   
    46. A(C   3,C   4,H  16)          106.15  0.006713   -0.16    105.99   
    47. A(C   5,C   4,H  15)          112.86  0.009888   -1.34    111.52   
    48. A(C   3,C   4,H  15)          112.73  0.015025   -2.12    110.61   
    49. A(C   3,C   4,C   5)          105.57 -0.037414    6.27    111.84   
    50. A(C   4,C   5,H  17)          111.77  0.001623   -0.13    111.63   
    51. A(H  18,C   5,H  19)          113.13  0.014523   -2.61    110.52   
    52. A(H  17,C   5,H  19)          106.74  0.004315   -0.33    106.41   
    53. A(C   4,C   5,H  19)          106.32 -0.014405    2.46    108.78   
    54. A(H  17,C   5,H  18)          110.68  0.008129   -1.54    109.14   
    55. A(C   4,C   5,H  18)          108.18 -0.014526    2.23    110.41   
    56. D(H   9,C   1,C   0,H   8)     47.73 -0.000588    0.46     48.19   
    57. D(H  10,C   1,C   0,H   7)     51.37 -0.003186    1.54     52.92   
    58. D(H   9,C   1,C   0,H   7)    171.72  0.002083   -0.51    171.20   
    59. D(H  10,C   1,C   0,H   8)    -72.62 -0.005856    2.52    -70.09   
    60. D(H   9,C   1,C   0,H   6)    -65.32  0.005073   -1.57    -66.89   
    61. D(C   2,C   1,C   0,H   8)    165.14 -0.003812    2.13    167.27   
    62. D(C   2,C   1,C   0,H   7)    -70.88 -0.001142    1.15    -69.72   
    63. D(C   2,C   1,C   0,H   6)     52.09  0.001849    0.09     52.18   
    64. D(H  10,C   1,C   0,H   6)    174.34 -0.000195    0.48    174.82   
    65. D(H  11,C   2,C   1,H   9)     60.92 -0.006031    2.09     63.01   
    66. D(C   3,C   2,C   1,H  10)     59.31  0.001474   -1.20     58.11   
    67. D(C   3,C   2,C   1,C   0)   -176.30  0.003079   -1.57   -177.87   
    68. D(H  11,C   2,C   1,C   0)    -55.28  0.000883   -0.35    -55.63   
    69. D(H  11,C   2,C   1,H  10)   -179.67 -0.000723    0.01   -179.66   
    70. D(H  12,C   2,C   1,H  10)    -61.04  0.004261   -1.96    -63.00   
    71. D(H  12,C   2,C   1,H   9)    179.55 -0.001047    0.12    179.67   
    72. D(H  12,C   2,C   1,C   0)     63.35  0.005867   -2.32     61.03   
    73. D(C   3,C   2,C   1,H   9)    -60.10 -0.003835    0.88    -59.22   
    74. D(H  14,C   3,C   2,H  11)     14.36  0.005408   -1.75     12.61   
    75. D(H  14,C   3,C   2,C   1)    133.32  0.001692   -0.29    133.03   
    76. D(H  13,C   3,C   2,H  12)    133.59 -0.004095    2.19    135.78   
    77. D(H  13,C   3,C   2,H  11)   -106.90 -0.001479    0.83   -106.08   
    78. D(H  13,C   3,C   2,C   1)     12.05 -0.005196    2.29     14.34   
    79. D(C   4,C   3,C   2,H  11)    130.63  0.000243    0.44    131.07   
    80. D(C   4,C   3,C   2,H  12)     11.13 -0.002374    1.80     12.92   
    81. D(H  14,C   3,C   2,H  12)   -105.14  0.002792   -0.39   -105.54   
    82. D(C   4,C   3,C   2,C   1)   -110.41 -0.003474    1.90   -108.51   
    83. D(H  15,C   4,C   3,C   2)     48.46  0.003897   -0.58     47.88   
    84. D(C   5,C   4,C   3,H  14)    -68.75 -0.003931    2.34    -66.41   
    85. D(C   5,C   4,C   3,H  13)     47.01 -0.002015    1.29     48.30   
    86. D(C   5,C   4,C   3,C   2)    172.09 -0.000331    0.77    172.86   
    87. D(H  16,C   4,C   3,H  14)     50.00 -0.005439    3.29     53.29   
    88. D(H  16,C   4,C   3,H  13)    165.76 -0.003522    2.24    168.00   
    89. D(H  16,C   4,C   3,C   2)    -69.15 -0.001838    1.72    -67.44   
    90. D(H  15,C   4,C   3,H  14)    167.62  0.000297    0.99    168.61   
    91. D(H  15,C   4,C   3,H  13)    -76.62  0.002213   -0.06    -76.68   
    92. D(H  19,C   5,C   4,H  16)    -22.12  0.005330   -2.70    -24.82   
    93. D(H  19,C   5,C   4,H  15)   -143.61 -0.003307    0.67   -142.93   
    94. D(H  19,C   5,C   4,C   3)     92.84 -0.002273   -0.19     92.65   
    95. D(H  18,C   5,C   4,H  16)     99.68  0.006421   -3.18     96.49   
    96. D(H  18,C   5,C   4,H  15)    -21.81 -0.002216    0.19    -21.61   
    97. D(H  18,C   5,C   4,C   3)   -145.36 -0.001182   -0.67   -146.03   
    98. D(H  17,C   5,C   4,H  16)   -138.23  0.007792   -3.68   -141.91   
    99. D(H  17,C   5,C   4,H  15)    100.29 -0.000844   -0.31     99.98   
   100. D(H  17,C   5,C   4,C   3)    -23.26  0.000189   -1.17    -24.43   
    ----------------------------------------------------------------------------

Time needed for optimization step       :     2.94 sec

         *************************************************************
         *                GEOMETRY OPTIMIZATION CYCLE   2            *
         *************************************************************
---------------------------------
CARTESIAN COORDINATES (ANGSTROEM)
---------------------------------
  C     -3.126262   -0.090065    0.034792
  C     -1.727620    0.499088    0.254924
  C     -0.675083   -0.593684    0.481117
  C      0.737397   -0.051244    0.758578
  C      1.722757   -0.273941   -0.415464
  C      3.076778    0.438606   -0.174172
  H     -3.345554   -0.785380    0.866737
  H     -3.216584   -0.616101   -0.931602
  H     -3.888292    0.711721    0.103122
  H     -1.770252    1.137466    1.158662
  H     -1.414048    1.133154   -0.595410
  H     -1.024957   -1.210421    1.333067
  H     -0.629817   -1.240578   -0.415650
  H      0.719276    1.026550    1.000123
  H      1.178919   -0.572917    1.630915
  H      1.265561    0.038114   -1.370944
  H      1.878805   -1.367518   -0.479247
  H      2.970048    1.291088    0.518708
  H      3.497389    0.798809   -1.129109
  H      3.771536   -0.272747    0.310691

----------------------------
CARTESIAN COORDINATES (A.U.)
----------------------------
  NO LB      ZA    FRAG     MASS         X           Y           Z
   0 C     6.0000    0    12.011   -5.907780   -0.170197    0.065747
   1 C     6.0000    0    12.011   -3.264728    0.943139    0.481736
   2 C     6.0000    0    12.011   -1.275721   -1.121901    0.909179
   3 C     6.0000    0    12.011    1.393478   -0.096837    1.433505
   4 C     6.0000    0    12.011    3.255540   -0.517673   -0.785112
   5 C     6.0000    0    12.011    5.814267    0.828845   -0.329138
   6 H     1.0000    0     1.008   -6.322181   -1.484153    1.637895
   7 H     1.0000    0     1.008   -6.078464   -1.164262   -1.760473
   8 H     1.0000    0     1.008   -7.347807    1.344957    0.194872
   9 H     1.0000    0     1.008   -3.345292    2.149499    2.189553
  10 H     1.0000    0     1.008   -2.672163    2.141350   -1.125162
  11 H     1.0000    0     1.008   -1.936889   -2.287365    2.519132
  12 H     1.0000    0     1.008   -1.190182   -2.344352   -0.785466
  13 H     1.0000    0     1.008    1.359235    1.939899    1.889959
  14 H     1.0000    0     1.008    2.227835   -1.082655    3.081983
  15 H     1.0000    0     1.008    2.391565    0.072025   -2.590709
  16 H     1.0000    0     1.008    3.550428   -2.584234   -0.905645
  17 H     1.0000    0     1.008    5.612578    2.439803    0.980217
  18 H     1.0000    0     1.008    6.609107    1.509531   -2.133707
  19 H     1.0000    0     1.008    7.127170   -0.515417    0.587121

--------------------------------
INTERNAL COORDINATES (ANGSTROEM)
--------------------------------
 C      0   0   0     0.000000000000     0.00000000     0.00000000
 C      1   0   0     1.533544843964     0.00000000     0.00000000
 C      2   1   0     1.533997729750   111.91757377     0.00000000
 C      3   2   1     1.538286192011   113.91751460   182.12968458
 C      4   3   2     1.548839311353   113.37440807   251.49474311
 C      5   4   3     1.548972303968   111.83288440   172.82215397
 H      1   2   3     1.106202717271   108.31991460    52.18491515
 H      1   2   3     1.103988116119   112.53988368   290.30243040
 H      1   2   3     1.108249658072   109.89637983   167.31151411
 H      2   1   3     1.107287861342   107.66970643   240.88748247
 H      2   1   3     1.106089483393   111.61906281   122.60503235
 H      3   2   1     1.108420554833   107.04506323   304.37021917
 H      3   2   1     1.106666795346   108.96483859    61.03460648
 H      4   3   2     1.104677817657   111.61832923    14.32331211
 H      4   3   2     1.108177159956   109.98803019   133.02993241
 H      5   4   3     1.104241857789   110.60089789    47.88775653
 H      5   4   3     1.106493987027   105.99309916   292.57315339
 H      6   5   4     1.103721664235   111.62695276   335.54325914
 H      6   5   4     1.103886061781   110.39072074   213.96516194
 H      6   5   4     1.106256830790   108.75113489    92.62260589

---------------------------
INTERNAL COORDINATES (A.U.)
---------------------------
 C      0   0   0     0.000000000000     0.00000000     0.00000000
 C      1   0   0     2.897979769178     0.00000000     0.00000000
 C      2   1   0     2.898835599284   111.91757377     0.00000000
 C      3   2   1     2.906939618493   113.91751460   182.12968458
 C      4   3   2     2.926882123908   113.37440807   251.49474311
 C      5   4   3     2.927133443529   111.83288440   172.82215397
 H      1   2   3     2.090420184243   108.31991460    52.18491515
 H      1   2   3     2.086235194569   112.53988368   290.30243040
 H      1   2   3     2.094288341768   109.89637983   167.31151411
[...]
  32   0.0000       0.148976         4.0538 
  33   0.0000       0.150292         4.0896 
  34   0.0000       0.151027         4.1097 
  35   0.0000       0.162900         4.4327 
  36   0.0000       0.172662         4.6984 
  37   0.0000       0.174601         4.7511 
  38   0.0000       0.179546         4.8857 
  39   0.0000       0.224215         6.1012 
  40   0.0000       0.242368         6.5952 
  41   0.0000       0.247338         6.7304 
  42   0.0000       0.259207         7.0534 
  43   0.0000       0.259708         7.0670 
  44   0.0000       0.410395        11.1674 
  45   0.0000       0.422432        11.4949 
  46   0.0000       0.431170        11.7327 
  47   0.0000       0.437472        11.9042 
  48   0.0000       0.439598        11.9621 
  49   0.0000       0.452290        12.3074 
  50   0.0000       0.493498        13.4288 
  51   0.0000       0.517343        14.0776 
  52   0.0000       0.546917        14.8824 
  53   0.0000       0.581493        15.8232 
  54   0.0000       0.637954        17.3596 
  55   0.0000       0.639120        17.3913 
  56   0.0000       0.651366        17.7246 
  57   0.0000       0.668602        18.1936 
  58   0.0000       0.678421        18.4608 
  59   0.0000       0.685744        18.6600 
  60   0.0000       0.691340        18.8123 
  61   0.0000       0.701759        19.0958 
  62   0.0000       0.706716        19.2307 
  63   0.0000       0.709678        19.3113 
  64   0.0000       0.716422        19.4948 
  65   0.0000       0.721906        19.6441 
  66   0.0000       0.723025        19.6745 
  67   0.0000       0.724363        19.7109 
  68   0.0000       0.729091        19.8396 
  69   0.0000       0.736503        20.0413 
  70   0.0000       0.749235        20.3877 
  71   0.0000       0.756110        20.5748 
  72   0.0000       0.757247        20.6057 
  73   0.0000       0.765573        20.8323 
  74   0.0000       0.774063        21.0633 
  75   0.0000       0.900724        24.5099 
  76   0.0000       0.996614        27.1193 
  77   0.0000       1.003155        27.2972 
  78   0.0000       1.043112        28.3845 
  79   0.0000       1.045418        28.4473 
  80   0.0000       1.142323        31.0842 
  81   0.0000       1.153847        31.3978 
  82   0.0000       1.427308        38.8390 
  83   0.0000       1.445648        39.3381 
  84   0.0000       1.547902        42.1206 
  85   0.0000       1.559047        42.4238 
  86   0.0000       1.718914        46.7740 
  87   0.0000       1.778124        48.3852 
  88   0.0000       1.841291        50.1041 
  89   0.0000       1.872609        50.9563 
  90   0.0000       1.874960        51.0202 
  91   0.0000       1.890539        51.4442 
  92   0.0000       1.932034        52.5733 
  93   0.0000       1.932776        52.5935 
  94   0.0000       1.948675        53.0262 
  95   0.0000       1.993658        54.2502 
  96   0.0000       2.033578        55.3365 
  97   0.0000       2.090648        56.8894 
  98   0.0000       2.111635        57.4605 
  99   0.0000       2.177274        59.2466 
 100   0.0000       2.178714        59.2858 
 101   0.0000       2.251167        61.2574 
 102   0.0000       2.258424        61.4548 
 103   0.0000       2.300189        62.5913 
 104   0.0000       2.302772        62.6616 
 105   0.0000       2.340790        63.6961 
 106   0.0000       2.397444        65.2378 
 107   0.0000       2.489747        67.7495 
 108   0.0000       2.574470        70.0549 
 109   0.0000       2.647151        72.0326 
 110   0.0000       2.698656        73.4342 
 111   0.0000       2.778886        75.6173 

                    ********************************
                    * MULLIKEN POPULATION ANALYSIS *
                    ********************************

------------------------------------------
FOD BASED MULLIKEN REDUCED ORBITAL CHARGES
------------------------------------------
  0 C s       :    -0.000000  s :    -0.000000
      pz      :     0.000000  p :     0.000000
      px      :     0.000000
      py      :     0.000000
      dz2     :     0.000000  d :     0.000000
      dxz     :     0.000000
      dyz     :     0.000000
      dx2y2   :     0.000000
      dxy     :     0.000000
  1 C s       :    -0.000000  s :    -0.000000
      pz      :     0.000000  p :     0.000000
      px      :     0.000000
      py      :     0.000000
      dz2     :     0.000000  d :     0.000000
      dxz     :     0.000000
      dyz     :     0.000000
      dx2y2   :     0.000000
      dxy     :     0.000000
  2 C s       :    -0.000000  s :    -0.000000
      pz      :     0.000000  p :     0.000000
      px      :     0.000000
      py      :     0.000000
      dz2     :     0.000000  d :     0.000000
      dxz     :     0.000000
      dyz     :     0.000000
      dx2y2   :     0.000000
      dxy     :     0.000000
  3 C s       :    -0.000000  s :    -0.000000
      pz      :     0.000000  p :     0.000000
      px      :     0.000000
      py      :     0.000000
      dz2     :     0.000000  d :     0.000000
      dxz     :     0.000000
      dyz     :     0.000000
      dx2y2   :     0.000000
      dxy     :     0.000000
  4 C s       :    -0.000000  s :    -0.000000
      pz      :     0.000000  p :     0.000000
      px      :     0.000000
      py      :     0.000000
      dz2     :     0.000000  d :     0.000000
      dxz     :     0.000000
      dyz     :     0.000000
      dx2y2   :     0.000000
      dxy     :     0.000000
  5 C s       :    -0.000000  s :    -0.000000
      pz      :     0.000000  p :     0.000000
      px      :     0.000000
      py      :     0.000000
      dz2     :     0.000000  d :     0.000000
      dxz     :     0.000000
      dyz     :     0.000000
      dx2y2   :     0.000000
      dxy     :     0.000000
  6 H s       :     0.000000  s :     0.000000
  7 H s       :     0.000000  s :     0.000000
  8 H s       :     0.000000  s :     0.000000
  9 H s       :     0.000000  s :     0.000000
 10 H s       :     0.000000  s :     0.000000
 11 H s       :     0.000000  s :     0.000000
 12 H s       :     0.000000  s :     0.000000
 13 H s       :     0.000000  s :     0.000000
 14 H s       :     0.000000  s :     0.000000
 15 H s       :     0.000000  s :     0.000000
 16 H s       :     0.000000  s :     0.000000
 17 H s       :     0.000000  s :     0.000000
 18 H s       :     0.000000  s :     0.000000
 19 H s       :     0.000000  s :     0.000000


                     *******************************
                     * LOEWDIN POPULATION ANALYSIS *
                     *******************************

-------------------------------------------
LOEWDIN ATOMIC CHARGES AND SPIN POPULATIONS
-------------------------------------------
   0 C :   -0.318693    0.000000
   1 C :   -0.220588    0.000000
   2 C :   -0.210881    0.000000
   3 C :   -0.210760    0.000000
   4 C :   -0.220645    0.000000
   5 C :   -0.318916    0.000000
   6 H :    0.108190    0.000000
   7 H :    0.108889    0.000000
   8 H :    0.110920    0.000000
   9 H :    0.105457    0.000000
  10 H :    0.106543    0.000000
  11 H :    0.105721    0.000000
  12 H :    0.104536    0.000000
  13 H :    0.104371    0.000000
  14 H :    0.105900    0.000000
  15 H :    0.106172    0.000000
  16 H :    0.105576    0.000000
  17 H :    0.108973    0.000000
  18 H :    0.110685    0.000000
  19 H :    0.108550    0.000000

----------------------------------------------------
LOEWDIN REDUCED ORBITAL CHARGES AND SPIN POPULATIONS
----------------------------------------------------
CHARGE
  0 C s       :     2.952526  s :     2.952526
      pz      :     1.112653  p :     3.292727
      px      :     1.071454
      py      :     1.108621
      dz2     :     0.012545  d :     0.073439
      dxz     :     0.013525
      dyz     :     0.016408
      dx2y2   :     0.014629
      dxy     :     0.016332
  1 C s       :     2.911741  s :     2.911741
      pz      :     1.090858  p :     3.218399
      px      :     1.049008
      py      :     1.078533
      dz2     :     0.017184  d :     0.090448
      dxz     :     0.013791
      dyz     :     0.019896
      dx2y2   :     0.021783
      dxy     :     0.017794
  2 C s       :     2.913583  s :     2.913583
      pz      :     1.084925  p :     3.207330
      px      :     1.046466
      py      :     1.075939
      dz2     :     0.014801  d :     0.089968
      dxz     :     0.015149
      dyz     :     0.021382
      dx2y2   :     0.020970
      dxy     :     0.017668
  3 C s       :     2.913633  s :     2.913633
      pz      :     1.070752  p :     3.207011
      px      :     1.049390
      py      :     1.086869
      dz2     :     0.012028  d :     0.090116
      dxz     :     0.019292
      dyz     :     0.025509
      dx2y2   :     0.017747
      dxy     :     0.015540
  4 C s       :     2.911837  s :     2.911837
      pz      :     1.074888  p :     3.218270
      px      :     1.052939
      py      :     1.090443
      dz2     :     0.012131  d :     0.090538
      dxz     :     0.018924
      dyz     :     0.026085
      dx2y2   :     0.018747
      dxy     :     0.014651
  5 C s       :     2.952582  s :     2.952582
      pz      :     1.109717  p :     3.292940
      px      :     1.072504
      py      :     1.110719
      dz2     :     0.009024  d :     0.073395
      dxz     :     0.016775
      dyz     :     0.018079
      dx2y2   :     0.015471
      dxy     :     0.014046
  6 H s       :     0.891810  s :     0.891810
  7 H s       :     0.891111  s :     0.891111
  8 H s       :     0.889080  s :     0.889080
  9 H s       :     0.894543  s :     0.894543
 10 H s       :     0.893457  s :     0.893457
 11 H s       :     0.894279  s :     0.894279
 12 H s       :     0.895464  s :     0.895464
 13 H s       :     0.895629  s :     0.895629
 14 H s       :     0.894100  s :     0.894100
 15 H s       :     0.893828  s :     0.893828
 16 H s       :     0.894424  s :     0.894424
 17 H s       :     0.891027  s :     0.891027
 18 H s       :     0.889315  s :     0.889315
 19 H s       :     0.891450  s :     0.891450

SPIN
  0 C s       :     0.000000  s :     0.000000
      pz      :     0.000000  p :     0.000000
      px      :     0.000000
      py      :     0.000000
      dz2     :     0.000000  d :     0.000000
      dxz     :     0.000000
      dyz     :     0.000000
      dx2y2   :     0.000000
      dxy     :     0.000000
  1 C s       :     0.000000  s :     0.000000
      pz      :     0.000000  p :     0.000000
      px      :     0.000000
      py      :     0.000000
      dz2     :     0.000000  d :     0.000000
      dxz     :     0.000000
      dyz     :     0.000000
      dx2y2   :     0.000000
      dxy     :     0.000000
  2 C s       :     0.000000  s :     0.000000
      pz      :     0.000000  p :     0.000000
      px      :     0.000000
      py      :     0.000000
      dz2     :     0.000000  d :     0.000000
      dxz     :     0.000000
      dyz     :     0.000000
      dx2y2   :     0.000000
      dxy     :     0.000000
  3 C s       :     0.000000  s :     0.000000
      pz      :     0.000000  p :     0.000000
      px      :     0.000000
      py      :     0.000000
      dz2     :     0.000000  d :     0.000000
      dxz     :     0.000000
      dyz     :     0.000000
      dx2y2   :     0.000000
      dxy     :     0.000000
  4 C s       :     0.000000  s :     0.000000
      pz      :     0.000000  p :     0.000000
      px      :     0.000000
      py      :     0.000000
      dz2     :     0.000000  d :     0.000000
      dxz     :     0.000000
      dyz     :     0.000000
      dx2y2   :     0.000000
      dxy     :     0.000000
  5 C s       :     0.000000  s :     0.000000
      pz      :     0.000000  p :     0.000000
      px      :     0.000000
      py      :     0.000000
      dz2     :     0.000000  d :     0.000000
      dxz     :     0.000000
      dyz     :     0.000000
      dx2y2   :     0.000000
      dxy     :     0.000000
  6 H s       :     0.000000  s :     0.000000
  7 H s       :     0.000000  s :     0.000000
  8 H s       :     0.000000  s :     0.000000
  9 H s       :     0.000000  s :     0.000000
 10 H s       :     0.000000  s :     0.000000
 11 H s       :     0.000000  s :     0.000000
 12 H s       :     0.000000  s :     0.000000
 13 H s       :     0.000000  s :     0.000000
 14 H s       :     0.000000  s :     0.000000
 15 H s       :     0.000000  s :     0.000000
 16 H s       :     0.000000  s :     0.000000
 17 H s       :     0.000000  s :     0.000000
 18 H s       :     0.000000  s :     0.000000
 19 H s       :     0.000000  s :     0.000000


                      *****************************
                      * MAYER POPULATION ANALYSIS *
                      *****************************

  NA   - Mulliken gross atomic population
  ZA   - Total nuclear charge
  QA   - Mulliken gross atomic charge
  VA   - Mayer's total valence
  BVA  - Mayer's bonded valence
  FA   - Mayer's free valence

  ATOM       NA         ZA         QA         VA         BVA        FA
  0 C      6.2395     6.0000    -0.2395     4.0064     4.0064     0.0000
  1 C      6.1759     6.0000    -0.1759     4.1292     4.1292     0.0000
  2 C      6.1278     6.0000    -0.1278     4.0871     4.0871     0.0000
  3 C      6.1303     6.0000    -0.1303     4.0850     4.0850     0.0000
  4 C      6.1807     6.0000    -0.1807     4.1279     4.1279     0.0000
  5 C      6.2390     6.0000    -0.2390     4.0052     4.0052     0.0000
  6 H      0.9143     1.0000     0.0857     0.9574     0.9574     0.0000
  7 H      0.9145     1.0000     0.0855     0.9577     0.9577     0.0000
  8 H      0.9080     1.0000     0.0920     0.9513     0.9513     0.0000
  9 H      0.9300     1.0000     0.0700     0.9501     0.9501     0.0000
 10 H      0.9191     1.0000     0.0809     0.9487     0.9487     0.0000
 11 H      0.9357     1.0000     0.0643     0.9517     0.9517     0.0000
 12 H      0.9343     1.0000     0.0657     0.9552     0.9552     0.0000
 13 H      0.9338     1.0000     0.0662     0.9555     0.9555     0.0000
 14 H      0.9334     1.0000     0.0666     0.9513     0.9513     0.0000
 15 H      0.9189     1.0000     0.0811     0.9488     0.9488     0.0000
 16 H      0.9284     1.0000     0.0716     0.9499     0.9499     0.0000
 17 H      0.9138     1.0000     0.0862     0.9575     0.9575     0.0000
 18 H      0.9097     1.0000     0.0903     0.9518     0.9518     0.0000
 19 H      0.9127     1.0000     0.0873     0.9572     0.9572     0.0000

  Mayer bond orders larger than 0.100000
B(  0-C ,  1-C ) :   1.1355 B(  0-C ,  6-H ) :   0.9592 B(  0-C ,  7-H ) :   0.9598 
B(  0-C ,  8-H ) :   0.9594 B(  1-C ,  2-C ) :   1.1153 B(  1-C ,  9-H ) :   0.9362 
B(  1-C , 10-H ) :   0.9306 B(  2-C ,  3-C ) :   1.1141 B(  2-C , 11-H ) :   0.9308 
B(  2-C , 12-H ) :   0.9285 B(  3-C ,  4-C ) :   1.1102 B(  3-C , 13-H ) :   0.9295 
B(  3-C , 14-H ) :   0.9316 B(  4-C ,  5-C ) :   1.1355 B(  4-C , 15-H ) :   0.9320 
B(  4-C , 16-H ) :   0.9368 B(  5-C , 17-H ) :   0.9595 B(  5-C , 18-H ) :   0.9592 
B(  5-C , 19-H ) :   0.9592 

-------
TIMINGS
-------

Total SCF time: 0 days 0 hours 4 min 57 sec 

Total time                  ....     297.784 sec
Sum of individual times     ....     231.873 sec  ( 77.9%)

Fock matrix formation       ....     200.222 sec  ( 67.2%)
  XC integration            ....      83.057 sec  ( 41.5% of F)
    Basis function eval.    ....       1.097 sec  (  1.3% of XC)
    Density eval.           ....       1.823 sec  (  2.2% of XC)
    XC-Functional eval.     ....       0.255 sec  (  0.3% of XC)
    XC-Potential eval.      ....       1.107 sec  (  1.3% of XC)
Diagonalization             ....       0.057 sec  (  0.0%)
Density matrix formation    ....      14.666 sec  (  4.9%)
Population analysis         ....       3.736 sec  (  1.3%)
Initial guess               ....       0.008 sec  (  0.0%)
Orbital Transformation      ....       0.000 sec  (  0.0%)
Orbital Orthonormalization  ....       0.004 sec  (  0.0%)
DIIS solution               ....       9.671 sec  (  3.2%)
Grid generation             ....       3.513 sec  (  1.2%)


-------------------------------------------------------------------------------
                          DFT DISPERSION CORRECTION                            
                                                                               
                              DFTD3 V3.1  Rev 1                                
                          USING Becke-Johnson damping                          
-------------------------------------------------------------------------------
The B3LYP functional is recognized
Active option DFTDOPT                   ...         4   

molecular C6(AA) [au] = 2519.004977 


            DFT-D V3
 parameters
 s6 scaling factor         :     1.0000 
 a1 scaling factor         :     0.3981 
 s8 scaling factor         :     1.9889 
 a2 scaling factor         :     4.4211 
 ad hoc parameters k1-k3   :    16.0000     1.3333    -4.0000 

 Edisp/kcal,au: -15.387849239034  -0.024522096054 
 E6   /kcal   :  -7.727457421 
 E8   /kcal   :  -7.660391818 
 % E8         :  49.782082594 

-------------------------   ----------------
Dispersion correction           -0.024522096
-------------------------   ----------------


-------------------------   --------------------
FINAL SINGLE POINT ENERGY      -236.723230085644
-------------------------   --------------------

                                *** OPTIMIZATION RUN DONE ***

                            ***************************************
                            *     ORCA property calculations      *
                            ***************************************

                                    ---------------------
                                    Active property flags
                                    ---------------------
   (+) Dipole Moment


------------------------------------------------------------------------------
                       ORCA ELECTRIC PROPERTIES CALCULATION
------------------------------------------------------------------------------

Dipole Moment Calculation                       ... on
Quadrupole Moment Calculation                   ... off
Polarizability Calculation                      ... off
GBWName                                         ... orca4.gbw
Electron density file                           ... orca4.scfp
The origin for moment calculation is the CENTER OF MASS  = ( 0.003339, -0.025085  0.310733)

-------------
DIPOLE MOMENT
-------------
                                X             Y             Z
Electronic contribution:      0.03382      -0.26256       0.34308
Nuclear contribution   :     -0.03619       0.27189      -0.35724
                        -----------------------------------------
Total Dipole Moment    :     -0.00237       0.00933      -0.01415
                        -----------------------------------------
Magnitude (a.u.)       :      0.01712
Magnitude (Debye)      :      0.04351



--------------------
Rotational spectrum 
--------------------
 
Rotational constants in cm-1:     0.337854     0.043045     0.040836 
Rotational constants in MHz : 10128.617485  1290.455277  1224.240386 

 Dipole components along the rotational axes: 
x,y,z [a.u.] :     0.001082    -0.017064    -0.000795 
x,y,z [Debye]:     0.002751    -0.043373    -0.002021 

 

Timings for individual modules:

Sum of individual times         ...     5545.531 sec (=  92.426 min)
GTO integral calculation        ...      164.464 sec (=   2.741 min)   3.0 %
SCF iterations                  ...     5098.776 sec (=  84.980 min)  91.9 %
SCF Gradient evaluation         ...      207.257 sec (=   3.454 min)   3.7 %
Geometry relaxation             ...       75.033 sec (=   1.251 min)   1.4 %
                             ****ORCA TERMINATED NORMALLY****
TOTAL RUN TIME: 0 days 1 hours 35 minutes 46 seconds 851 msec
