18
Properties=species:S:1:pos:R:3 energy=-235.662332576154 name=chex_chair pbc="F F F"
C        1.43241789      -0.19473373      -0.33182617
C        0.55660422      -1.38115032       0.16183819
C       -0.94638358      -1.15747359      -0.16925003
C       -1.45821547       0.20061192       0.38907213
C       -0.58292665       1.38608903      -0.10772497
C        0.91957819       1.16313235       0.22598251
H        2.48742999      -0.35325164      -0.04048761
H        1.41139680      -0.16350246      -1.43994121
H        0.67535633      -1.48761610       1.25906662
H        0.90894542      -2.32813963      -0.28790280
H       -1.08050806      -1.17010554      -1.26978216
H       -1.55395211      -1.98921626       0.23342526
H       -1.43487743       0.17038905       1.49726087
H       -2.51396669       0.35830960       0.09967183
H       -0.70095791       1.48814691      -1.20544983
H       -0.93581423       2.33457625       0.33824949
H        1.05138298       1.17631996       1.32671622
H        1.52779941       1.99487678      -0.17548918
18
Properties=species:S:1:pos:R:3 energy=-235.652532422943 name=chex_twboat pbc="F F F"
C       -0.38860551       1.40978670      -0.07995513
C       -1.51350516       0.32925305      -0.21878458
C       -0.95518948      -1.12893955      -0.08873473
C        0.29234345      -1.17354962       0.83423788
C        1.47342659      -0.33994452       0.23161465
C        0.96849617       0.87800187      -0.61472310
H       -0.68210089       2.33231000      -0.61255298
H       -0.26720521       1.69189044       0.98366172
H       -2.28591051       0.50645902       0.55247788
H       -2.01818072       0.43862537      -1.19665758
H       -1.74374169      -1.80372562       0.29037708
H       -0.67277908      -1.51292770      -1.08811932
H        0.01607418      -0.76977578       1.82742139
H        0.61339043      -2.21718782       1.00344537
H        2.12252874       0.01781106       1.05237136
H        2.10312964      -0.98922888      -0.40473419
H        1.72804204       1.68050673      -0.61435084
H        0.83989794       0.57346089      -1.67129360
