5
Lattice="50.0 0.0 0.0 0.0 50.0 0.0 0.0 0.0 50.0" Properties=species:S:1:pos:R:3:dft_forces:R:3 config_type=rdkit compound=id_bde_1 mol_or_rad=mol rad_num=mol graph_name=id_bde_1_mol dataset_type=bde_test dft_energy=-1100.5115440074444 dft_dipole="0.00012708732253120542 -0.00010166985802496434 -0.0001525047870374465" pbc="F F F"
C        0.00000165       0.00013372       0.00002750       0.00270507      -0.00438848      -0.00123738
H       -0.68355183       0.86216476      -0.08598560       0.00135754       0.00336534       0.00198999
H       -0.39840353      -0.84494185      -0.58737229       0.00038413      -0.00191502       0.00056293
H        0.08658583      -0.29667848       1.05935782      -0.00290141       0.00153455       0.00032496
H        0.99536789       0.27932185      -0.38602743      -0.00124151       0.00394192      -0.00183461
5
Lattice="50.0 0.0 0.0 0.0 50.0 0.0 0.0 0.0 50.0" Properties=species:S:1:pos:R:3:dft_forces:R:3 config_type=rdkit compound=id_bde_2 mol_or_rad=mol rad_num=mol graph_name=id_bde_2_mol dataset_type=bde_test dft_energy=-1100.5190507432537 dft_dipole="0.0001525047870374465 -0.00017792225154368758 -0.00035584450308737516" pbc="F F F"
C       -0.00003013      -0.00001145       0.00009179      -0.00113612      -0.00488707      -0.00663578
H       -0.58226967      -0.19000864       0.91803508       0.00037446      -0.00037141       0.00086216
H        0.45797175       1.00247764       0.05567895      -0.00009552      -0.00043729       0.00102539
H       -0.66828332      -0.05093119      -0.87660728       0.00178344      -0.00034171       0.00367640
H        0.79261237      -0.76152636      -0.09719854      -0.00189155       0.00167812       0.00209881
