
                                 *****************
                                 * O   R   C   A *
                                 *****************

           --- An Ab Initio, DFT and Semiempirical electronic structure package ---

                  #######################################################
                  #                        -***-                        #
                  #          Department of theory and spectroscopy      #
                  #               Directorship: Frank Neese             #
                  #        Max Planck Institute fuer Kohlenforschung    #
                  #                Kaiser Wilhelm Platz 1               #
                  #                 D-45470 Muelheim/Ruhr               #
                  #                      Germany                        #
                  #                                                     #
                  #                  All rights reserved                #
                  #                        -***-                        #
                  #######################################################


                         Program Version 4.2.1 -  RELEASE  -


 With contributions from (in alphabetic order):
   Daniel Aravena         : Magnetic Suceptibility
   Michael Atanasov       : Ab Initio Ligand Field Theory (pilot matlab implementation)
   Alexander A. Auer      : GIAO ZORA, VPT2
   Ute Becker             : Parallelization
   Giovanni Bistoni       : ED, misc. LED, open-shell LED, HFLD
   Martin Brehm           : Molecular dynamics
   Dmytro Bykov           : SCF Hessian
   Vijay G. Chilkuri      : MRCI spin determinant printing, contributions to CSF-ICE
   Dipayan Datta          : RHF DLPNO-CCSD density
   Achintya Kumar Dutta   : EOM-CC, STEOM-CC
   Dmitry Ganyushin       : Spin-Orbit,Spin-Spin,Magnetic field MRCI
   Miquel Garcia          : C-PCM Hessian, Gaussian charge scheme
   Yang Guo               : DLPNO-NEVPT2, CIM, IAO-localization
   Andreas Hansen         : Spin unrestricted coupled pair/coupled cluster methods
   Benjamin Helmich-Paris : CASSCF linear response (MC-RPA)
   Lee Huntington         : MR-EOM, pCC
   Robert Izsak           : Overlap fitted RIJCOSX, COSX-SCS-MP3, EOM
   Christian Kollmar      : KDIIS, OOCD, Brueckner-CCSD(T), CCSD density
   Simone Kossmann        : Meta GGA functionals, TD-DFT gradient, OOMP2, MP2 Hessian
   Martin Krupicka        : AUTO-CI
   Lucas Lang             : DCDCAS
   Dagmar Lenk            : GEPOL surface, SMD
   Dimitrios Liakos       : Extrapolation schemes; Compound Job, initial MDCI parallelization
   Dimitrios Manganas     : Further ROCIS development; embedding schemes
   Dimitrios Pantazis     : SARC Basis sets
   Taras Petrenko         : DFT Hessian,TD-DFT gradient, ASA, ECA, R-Raman, ABS, FL, XAS/XES, NRVS
   Peter Pinski           : DLPNO-MP2, DLPNO-MP2 Gradient
   Christoph Reimann      : Effective Core Potentials
   Marius Retegan         : Local ZFS, SOC
   Christoph Riplinger    : Optimizer, TS searches, QM/MM, DLPNO-CCSD(T), (RO)-DLPNO pert. Triples
   Tobias Risthaus        : Range-separated hybrids, TD-DFT gradient, RPA, STAB
   Michael Roemelt        : Original ROCIS implementation
   Masaaki Saitow         : Open-shell DLPNO-CCSD energy and density
   Barbara Sandhoefer     : DKH picture change effects
   Avijit Sen             : IP-ROCIS
   Kantharuban Sivalingam : CASSCF convergence, NEVPT2, FIC-MRCI
   Bernardo de Souza      : ESD, SOC TD-DFT
   Georgi Stoychev        : AutoAux, RI-MP2 NMR
   Willem Van den Heuvel  : Paramagnetic NMR
   Boris Wezisla          : Elementary symmetry handling
   Frank Wennmohs         : Technical directorship


 We gratefully acknowledge several colleagues who have allowed us to
 interface, adapt or use parts of their codes:
   Stefan Grimme, W. Hujo, H. Kruse,             : VdW corrections, initial TS optimization,
                  C. Bannwarth                     DFT functionals, gCP, sTDA/sTD-DF
   Ed Valeev, F. Pavosevic, A. Kumar             : LibInt (2-el integral package), F12 methods
   Garnet Chan, S. Sharma, J. Yang, R. Olivares  : DMRG
   Ulf Ekstrom                                   : XCFun DFT Library
   Mihaly Kallay                                 : mrcc  (arbitrary order and MRCC methods)
   Andreas Klamt, Michael Diedenhofen            : otool_cosmo (COSMO solvation model)
   Jiri Pittner, Ondrej Demel                    : Mk-CCSD
   Frank Weinhold                                : gennbo (NPA and NBO analysis)
   Christopher J. Cramer and Donald G. Truhlar   : smd solvation model
   Lars Goerigk                                  : TD-DFT with DH, B97 family of functionals
   V. Asgeirsson, H. Jonsson                     : NEB implementation
   FAccTs GmbH                                   : IRC, NEB, NEB-TS, Multilevel, MM, QM/MM, CI optimization
   S Lehtola, MJT Oliveira, MAL Marques          : LibXC Library


 Your calculation uses the libint2 library for the computation of 2-el integrals
 For citations please refer to: http://libint.valeyev.net

 Your ORCA version has been built with support for libXC version: 4.2.3
 For citations please refer to: https://tddft.org/programs/libxc/

 This ORCA versions uses:
   CBLAS   interface :  Fast vector & matrix operations
   LAPACKE interface :  Fast linear algebra routines
   SCALAPACK package :  Parallel linear algebra routines


Your calculation utilizes the atom-pairwise dispersion correction
with the Becke-Johnson damping scheme (D3BJ)
Cite in your paper:
S.Grimme, S.Ehrlich, L.Goerigk, J Comput Chem, (2011), 32, 1456–1465 
S.Grimme, J.Antony, S.Ehrlich and H.Krieg, J.Chem.Phys., 132, (2010), 154104 
   

----- Orbital basis set information -----
Your calculation utilizes the basis: def2-SV(P)
   F. Weigend and R. Ahlrichs, Phys. Chem. Chem. Phys. 7, 3297 (2005).

----- AuxJ basis set information -----
Your calculation utilizes the auxiliary basis: def2/J
   F. Weigend, Phys. Chem. Chem. Phys. 8, 1057 (2006).

================================================================================
                                        WARNINGS
                       Please study these warnings very carefully!
================================================================================


WARNING: Geometry Optimization
  ===> : Switching off AutoStart
         For restart on a previous wavefunction, please use MOREAD

INFO   : the flag for use of LIBINT has been found!

================================================================================
                                       INPUT FILE
================================================================================
NAME = orca8.inp
|  1> ! UKS B3LYP def2-SV(P) def2/J D3BJ Opt
|  2> %scf Convergence VeryTight
|  3> SmearTemp 2000
|  4> maxiter 500
|  5> end
|  6> *xyz 0 1
|  7> C 2.783649 0.014649 -0.085129
|  8> C 1.604167 -0.005695 0.853536
|  9> C 0.338672 0.504844 0.173708
| 10> C -0.422402 -0.639444 -0.38559
| 11> C -1.893068 -0.606723 -0.246137
| 12> C -2.480776 0.613593 0.385794
| 13> H 3.710063 0.295149 0.473302
| 14> H 2.65867 0.774875 -0.875646
| 15> H 2.928698 -0.971596 -0.5712
| 16> H 1.803248 0.530664 1.797922
| 17> H 1.440504 -1.074442 1.138117
| 18> H 0.677136 1.194201 -0.639808
| 19> H -0.182889 1.125845 0.905089
| 20> H -0.115762 -0.748581 -1.457186
| 21> H -0.054101 -1.57959 0.099377
| 22> H -2.300563 -1.48631 0.314288
| 23> H -2.353754 -0.675912 -1.264905
| 24> H -2.451736 1.504055 -0.289738
| 25> H -2.115736 0.830527 1.401915
| 26> H -3.574019 0.399893 0.515333
| 27> *
| 28> 
| 29>                          ****END OF INPUT****
================================================================================

                       *****************************
                       * Geometry Optimization Run *
                       *****************************

Geometry optimization settings:
Update method            Update   .... BFGS
Choice of coordinates    CoordSys .... Z-matrix Internals
Initial Hessian          InHess   .... Almoef's Model

Convergence Tolerances:
Energy Change            TolE     ....  5.0000e-06 Eh
Max. Gradient            TolMAXG  ....  3.0000e-04 Eh/bohr
RMS Gradient             TolRMSG  ....  1.0000e-04 Eh/bohr
Max. Displacement        TolMAXD  ....  4.0000e-03 bohr
RMS Displacement         TolRMSD  ....  2.0000e-03 bohr
Strict Convergence                ....  False
------------------------------------------------------------------------------
                        ORCA OPTIMIZATION COORDINATE SETUP
------------------------------------------------------------------------------

The optimization will be done in new redundant internal coordinates
Making redundant internal coordinates   ...  (new redundants) done
Evaluating the initial hessian          ...  (Almloef) done
Evaluating the coordinates              ...  done
Calculating the B-matrix                .... done
Calculating the G-matrix                .... done
Diagonalizing the G-matrix              .... done
Small eigenvalue found = 1.593e-02
The first mode is                       ....   46
The number of degrees of freedom        ....   54

    -----------------------------------------------------------------
                    Redundant Internal Coordinates


    -----------------------------------------------------------------
         Definition                    Initial Value    Approx d2E/dq
    -----------------------------------------------------------------
      1. B(C   1,C   0)                  1.5075         0.405702   
      2. B(C   2,C   1)                  1.5246         0.381111   
      3. B(C   3,C   2)                  1.4837         0.442797   
      4. B(C   4,C   3)                  1.4776         0.452833   
      5. B(C   5,C   4)                  1.4946         0.425416   
      6. B(H   6,C   0)                  1.1175         0.325519   
      7. B(H   7,C   0)                  1.1038         0.342239   
      8. B(H   8,C   0)                  1.1090         0.335766   
      9. B(H   9,C   1)                  1.1042         0.341841   
     10. B(H  10,C   1)                  1.1180         0.324865   
     11. B(H  11,C   2)                  1.1187         0.324019   
     12. B(H  12,C   2)                  1.0921         0.357390   
     13. B(H  13,C   3)                  1.1199         0.322598   
     14. B(H  14,C   3)                  1.1201         0.322357   
     15. B(H  15,C   4)                  1.1197         0.322839   
     16. B(H  16,C   4)                  1.1202         0.322255   
     17. B(H  17,C   5)                  1.1181         0.324802   
     18. B(H  18,C   5)                  1.1013         0.345484   
     19. B(H  19,C   5)                  1.1214         0.320821   
     20. A(H   7,C   0,H   8)          108.2633         0.285394   
     21. A(C   1,C   0,H   7)          111.5071         0.326009   
     22. A(C   1,C   0,H   6)          109.9287         0.323338   
     23. A(H   6,C   0,H   7)          106.1924         0.284021   
     24. A(H   6,C   0,H   8)          109.5002         0.283180   
     25. A(C   1,C   0,H   8)          111.2980         0.324987   
     26. A(C   2,C   1,H  10)          108.1862         0.319939   
     27. A(C   0,C   1,H  10)          106.6137         0.323231   
     28. A(C   2,C   1,H   9)          111.6159         0.322617   
     29. A(C   0,C   1,H   9)          112.6391         0.325947   
     30. A(H   9,C   1,H  10)          105.8450         0.283881   
     31. A(C   0,C   1,C   2)          111.5473         0.369789   
     32. A(H  11,C   2,H  12)          106.3259         0.285737   
     33. A(C   1,C   2,C   3)          109.6095         0.375405   
     34. A(C   3,C   2,H  11)          110.8730         0.327775   
     35. A(C   1,C   2,H  11)          106.2289         0.319803   
     36. A(C   1,C   2,H  12)          106.7516         0.324981   
     37. A(C   3,C   2,H  12)          116.4896         0.333132   
     38. A(C   2,C   3,C   4)          117.2503         0.386804   
     39. A(H  13,C   3,H  14)          104.0311         0.281005   
     40. A(C   4,C   3,H  14)          107.7567         0.328710   
     41. A(C   2,C   3,H  14)          108.3873         0.327497   
     42. A(C   4,C   3,H  13)          111.4059         0.328750   
     43. A(C   2,C   3,H  13)          107.1812         0.327537   
     44. A(H  15,C   4,H  16)          104.8916         0.281023   
     45. A(C   5,C   4,H  16)          105.8566         0.325328   
     46. A(C   3,C   4,H  16)          108.7906         0.328693   
     47. A(C   5,C   4,H  15)          106.6576         0.325425   
     48. A(C   3,C   4,H  15)          113.0820         0.328791   
     49. A(C   3,C   4,C   5)          116.7016         0.384117   
     50. A(C   4,C   5,H  17)          112.6181         0.325750   
     51. A(H  18,C   5,H  19)          104.7198         0.283796   
     52. A(H  17,C   5,H  19)          104.2927         0.281093   
     53. A(C   4,C   5,H  19)          106.0562         0.325090   
     54. A(H  17,C   5,H  18)          113.0776         0.284340   
     55. A(C   4,C   5,H  18)          114.8725         0.329081   
     56. D(H   9,C   1,C   0,H   8)    138.4397         0.013047   
     57. D(H  10,C   1,C   0,H   7)    143.7788         0.013047   
     58. D(H   9,C   1,C   0,H   7)   -100.5530         0.013047   
     59. D(H  10,C   1,C   0,H   8)     22.7716         0.013047   
     60. D(H   9,C   1,C   0,H   6)     16.9435         0.013047   
     61. D(C   2,C   1,C   0,H   8)    -95.1325         0.013047   
     62. D(C   2,C   1,C   0,H   7)     25.8748         0.013047   
     63. D(C   2,C   1,C   0,H   6)    143.3714         0.013047   
     64. D(H  10,C   1,C   0,H   6)    -98.7246         0.013047   
     65. D(H  11,C   2,C   1,H   9)    100.6603         0.011573   
     66. D(C   3,C   2,C   1,H  10)    -23.4365         0.011573   
     67. D(C   3,C   2,C   1,C   0)     93.5180         0.011573   
     68. D(H  11,C   2,C   1,C   0)    -26.3256         0.011573   
     69. D(H  11,C   2,C   1,H  10)   -143.2801         0.011573   
     70. D(H  12,C   2,C   1,H  10)    103.5566         0.011573   
     71. D(H  12,C   2,C   1,H   9)    -12.5030         0.011573   
     72. D(H  12,C   2,C   1,C   0)   -139.4889         0.011573   
     73. D(C   3,C   2,C   1,H   9)   -139.4961         0.011573   
     74. D(H  14,C   3,C   2,H  11)    134.3793         0.015490   
     75. D(H  14,C   3,C   2,C   1)     17.4189         0.015490   
     76. D(H  13,C   3,C   2,H  12)    144.3980         0.015490   
     77. D(H  13,C   3,C   2,H  11)     22.6511         0.015490   
     78. D(H  13,C   3,C   2,C   1)    -94.3094         0.015490   
     79. D(C   4,C   3,C   2,H  11)   -103.4320         0.015490   
     80. D(C   4,C   3,C   2,H  12)     18.3150         0.015490   
     81. D(H  14,C   3,C   2,H  12)   -103.8737         0.015490   
     82. D(C   4,C   3,C   2,C   1)    139.6076         0.015490   
     83. D(H  15,C   4,C   3,C   2)   -121.2536         0.016198   
     84. D(C   5,C   4,C   3,H  14)    125.5336         0.016198   
     85. D(C   5,C   4,C   3,H  13)   -120.9523         0.016198   
     86. D(C   5,C   4,C   3,C   2)      3.0201         0.016198   
     87. D(H  16,C   4,C   3,H  14)   -114.8492         0.016198   
     88. D(H  16,C   4,C   3,H  13)     -1.3352         0.016198   
     89. D(H  16,C   4,C   3,C   2)    122.6372         0.016198   
     90. D(H  15,C   4,C   3,H  14)      1.2599         0.016198   
     91. D(H  15,C   4,C   3,H  13)    114.7740         0.016198   
     92. D(H  19,C   5,C   4,H  16)     65.5108         0.014312   
     93. D(H  19,C   5,C   4,H  15)    -45.8258         0.014312   
     94. D(H  19,C   5,C   4,C   3)   -173.3117         0.014312   
     95. D(H  18,C   5,C   4,H  16)   -179.3470         0.014312   
     96. D(H  18,C   5,C   4,H  15)     69.3165         0.014312   
     97. D(H  18,C   5,C   4,C   3)    -58.1695         0.014312   
     98. D(H  17,C   5,C   4,H  16)    -47.9555         0.014312   
     99. D(H  17,C   5,C   4,H  15)   -159.2921         0.014312   
    100. D(H  17,C   5,C   4,C   3)     73.2220         0.014312   
    -----------------------------------------------------------------

Number of atoms                         .... 20
Number of degrees of freedom            .... 100

Time needed for optimization step       :     1.54 sec

         *************************************************************
         *                GEOMETRY OPTIMIZATION CYCLE   1            *
         *************************************************************
---------------------------------
CARTESIAN COORDINATES (ANGSTROEM)
---------------------------------
  C      2.783649    0.014649   -0.085129
  C      1.604167   -0.005695    0.853536
  C      0.338672    0.504844    0.173708
  C     -0.422402   -0.639444   -0.385590
  C     -1.893068   -0.606723   -0.246137
  C     -2.480776    0.613593    0.385794
  H      3.710063    0.295149    0.473302
  H      2.658670    0.774875   -0.875646
  H      2.928698   -0.971596   -0.571200
  H      1.803248    0.530664    1.797922
  H      1.440504   -1.074442    1.138117
  H      0.677136    1.194201   -0.639808
  H     -0.182889    1.125845    0.905089
  H     -0.115762   -0.748581   -1.457186
  H     -0.054101   -1.579590    0.099377
  H     -2.300563   -1.486310    0.314288
  H     -2.353754   -0.675912   -1.264905
  H     -2.451736    1.504055   -0.289738
  H     -2.115736    0.830527    1.401915
  H     -3.574019    0.399893    0.515333

----------------------------
CARTESIAN COORDINATES (A.U.)
----------------------------
  NO LB      ZA    FRAG     MASS         X           Y           Z
   0 C     6.0000    0    12.011    5.260334    0.027683   -0.160870
   1 C     6.0000    0    12.011    3.031436   -0.010762    1.612949
   2 C     6.0000    0    12.011    0.639997    0.954017    0.328261
   3 C     6.0000    0    12.011   -0.798224   -1.208374   -0.728659
   4 C     6.0000    0    12.011   -3.577380   -1.146540   -0.465132
   5 C     6.0000    0    12.011   -4.687987    1.159523    0.729045
   6 H     1.0000    0     1.008    7.011003    0.557751    0.894411
   7 H     1.0000    0     1.008    5.024158    1.464302   -1.654731
   8 H     1.0000    0     1.008    5.534437   -1.836050   -1.079412
   9 H     1.0000    0     1.008    3.407645    1.002810    3.397580
  10 H     1.0000    0     1.008    2.722158   -2.030401    2.150729
  11 H     1.0000    0     1.008    1.279602    2.256713   -1.209062
  12 H     1.0000    0     1.008   -0.345610    2.127539    1.710370
  13 H     1.0000    0     1.008   -0.218758   -1.414613   -2.753682
  14 H     1.0000    0     1.008   -0.102236   -2.984993    0.187795
  15 H     1.0000    0     1.008   -4.347434   -2.808719    0.593918
  16 H     1.0000    0     1.008   -4.447950   -1.277289   -2.390324
  17 H     1.0000    0     1.008   -4.633110    2.842252   -0.547525
  18 H     1.0000    0     1.008   -3.998162    1.569469    2.649235
  19 H     1.0000    0     1.008   -6.753917    0.755688    0.973838

--------------------------------
INTERNAL COORDINATES (ANGSTROEM)
--------------------------------
 C      0   0   0     0.000000000000     0.00000000     0.00000000
 C      1   0   0     1.507542254428     0.00000000     0.00000000
 C      2   1   0     1.524563470351   111.54731374     0.00000000
 C      3   2   1     1.483726023639   109.60954817    93.51797068
 C      4   3   2     1.477625218588   117.25026391   139.60758471
 C      5   4   3     1.494626582756   116.70164739     3.02005132
 H      1   2   3     1.117483033946   109.92872543   143.37137160
 H      1   2   3     1.103848018889   111.50712040    25.87479475
 H      1   2   3     1.109046180043   111.29795041   264.86754603
 H      2   1   3     1.104164452624   112.63914301   233.57216815
 H      2   1   3     1.118030443744   106.61365298   117.90404673
 H      3   2   1     1.118740021185   106.22888325   333.67438281
 H      3   2   1     1.092055990269   106.75159278   220.51106446
 H      4   3   2     1.119936141744   107.18116840   265.69064759
 H      4   3   2     1.120139776548   108.38727858    17.41887069
 H      5   4   3     1.119732845914   113.08198353   238.74635331
 H      5   4   3     1.120226292381   108.79059665   122.63720512
 H      6   5   4     1.118082903039   112.61805555    73.22195197
 H      6   5   4     1.101279459809   114.87252014   301.83048682
 H      6   5   4     1.121440279092   106.05621430   186.68825108

---------------------------
INTERNAL COORDINATES (A.U.)
---------------------------
 C      0   0   0     0.000000000000     0.00000000     0.00000000
 C      1   0   0     2.848841996183     0.00000000     0.00000000
 C      2   1   0     2.881007432745   111.54731374     0.00000000
 C      3   2   1     2.803835842450   109.60954817    93.51797068
 C      4   3   2     2.792306991706   117.25026391   139.60758471
 C      5   4   3     2.824434913888   116.70164739     3.02005132
 H      1   2   3     2.111736893461   109.92872543   143.37137160
 H      1   2   3     2.085970449172   111.50712040    25.87479475
 H      1   2   3     2.095793550152   111.29795041   264.86754603
 H      2   1   3     2.086568422270   112.63914301   233.57216815
 H      2   1   3     2.112771348063   106.61365298   117.90404673
 H      3   2   1     2.114112255097   106.22888325   333.67438281
 H      3   2   1     2.063686744517   106.75159278   220.51106446
 H      4   3   2     2.116372595377   107.18116840   265.69064759
 H      4   3   2     2.116757409388   108.38727858    17.41887069
 H      5   4   3     2.115988421934   113.08198353   238.74635331
 H      5   4   3     2.116920900618   108.79059665   122.63720512
 H      6   5   4     2.112870481763   112.61805555    73.22195197
 H      6   5   4     2.081116575952   114.87252014   301.83048682
 H      6   5   4     2.119215003032   106.05621430   186.68825108

---------------------
BASIS SET INFORMATION
---------------------
There are 2 groups of distinct atoms

 Group   1 Type C   : 7s4p1d contracted to 3s2p1d pattern {511/31/1}
 Group   2 Type H   : 4s contracted to 2s pattern {31}

Atom   0C    basis set group =>   1
Atom   1C    basis set group =>   1
Atom   2C    basis set group =>   1
Atom   3C    basis set group =>   1
Atom   4C    basis set group =>   1
Atom   5C    basis set group =>   1
Atom   6H    basis set group =>   2
Atom   7H    basis set group =>   2
Atom   8H    basis set group =>   2
Atom   9H    basis set group =>   2
Atom  10H    basis set group =>   2
Atom  11H    basis set group =>   2
Atom  12H    basis set group =>   2
Atom  13H    basis set group =>   2
Atom  14H    basis set group =>   2
Atom  15H    basis set group =>   2
Atom  16H    basis set group =>   2
Atom  17H    basis set group =>   2
Atom  18H    basis set group =>   2
Atom  19H    basis set group =>   2
---------------------------------
AUXILIARY/J BASIS SET INFORMATION
---------------------------------
There are 2 groups of distinct atoms

 Group   1 Type C   : 12s5p4d2f1g contracted to 6s4p3d1f1g pattern {711111/2111/211/2/1}
 Group   2 Type H   : 5s2p1d contracted to 3s1p1d pattern {311/2/1}

Atom   0C    basis set group =>   1
Atom   1C    basis set group =>   1
Atom   2C    basis set group =>   1
Atom   3C    basis set group =>   1
Atom   4C    basis set group =>   1
Atom   5C    basis set group =>   1
Atom   6H    basis set group =>   2
Atom   7H    basis set group =>   2
Atom   8H    basis set group =>   2
Atom   9H    basis set group =>   2
Atom  10H    basis set group =>   2
Atom  11H    basis set group =>   2
Atom  12H    basis set group =>   2
Atom  13H    basis set group =>   2
Atom  14H    basis set group =>   2
Atom  15H    basis set group =>   2
Atom  16H    basis set group =>   2
Atom  17H    basis set group =>   2
Atom  18H    basis set group =>   2
Atom  19H    basis set group =>   2
------------------------------------------------------------------------------
                           ORCA GTO INTEGRAL CALCULATION
------------------------------------------------------------------------------

                         BASIS SET STATISTICS AND STARTUP INFO

 # of primitive gaussian shells          ...  128
 # of primitive gaussian functions       ...  200
 # of contracted shells                  ...   64
 # of contracted basis functions         ...  112
 Highest angular momentum                ...    2
 Maximum contraction depth               ...    5
 Integral package used                   ... LIBINT
 Integral threshhold            Thresh   ...  1.000e-12
 Primitive cut-off              TCut     ...  1.000e-14


------------------------------ INTEGRAL EVALUATION ----------------------------


 * One electron integrals 
 Pre-screening matrix                    ... done
 Shell pair data                         ... done (   0.001 sec)

-------------------------------------------------------------------------------
                                 ORCA SCF
-------------------------------------------------------------------------------

------------
SCF SETTINGS
------------
Hamiltonian:
 Density Functional     Method          .... DFT(GTOs)
 Exchange Functional    Exchange        .... B88
   X-Alpha parameter    XAlpha          ....  0.666667
   Becke's b parameter  XBeta           ....  0.004200
 Correlation Functional Correlation     .... LYP
 LDA part of GGA corr.  LDAOpt          .... VWN-5
 Gradients option       PostSCFGGA      .... off
 Hybrid DFT is turned on
   Fraction HF Exchange ScalHFX         ....  0.200000
   Scaling of DF-GGA-X  ScalDFX         ....  0.720000
   Scaling of DF-GGA-C  ScalDFC         ....  0.810000
   Scaling of DF-LDA-C  ScalLDAC        ....  1.000000
   Perturbative correction              ....  0.000000
   Density functional embedding theory  .... OFF
   NL short-range parameter             ....  4.800000


General Settings:
 Integral files         IntName         .... orca8
 Hartree-Fock type      HFTyp           .... UHF
 Total Charge           Charge          ....    0
 Multiplicity           Mult            ....    1
 Number of Electrons    NEL             ....   50
 Basis Dimension        Dim             ....  112
 Nuclear Repulsion      ENuc            ....    253.8721268332 Eh

Convergence Acceleration:
 DIIS                   CNVDIIS         .... on
   Start iteration      DIISMaxIt       ....    12
   Startup error        DIISStart       ....  0.200000
   # of expansion vecs  DIISMaxEq       ....     5
   Bias factor          DIISBfac        ....   1.050
   Max. coefficient     DIISMaxC        ....  10.000
 Newton-Raphson         CNVNR           .... off
 SOSCF                  CNVSOSCF        .... off
 Level Shifting         CNVShift        .... on
   Level shift para.    LevelShift      ....    0.2500
   Turn off err/grad.   ShiftErr        ....    0.0010
 Zerner damping         CNVZerner       .... off
 Static damping         CNVDamp         .... on
   Fraction old density DampFac         ....    0.7000
   Max. Damping (<1)    DampMax         ....    0.9800
   Min. Damping (>=0)   DampMin         ....    0.0000
   Turn off err/grad.   DampErr         ....    0.1000
 Fernandez-Rico         CNVRico         .... off

SCF Procedure:
 Maximum # iterations   MaxIter         ....   500
 SCF integral mode      SCFMode         .... Direct
   Integral package                     .... LIBINT
 Reset frequency        DirectResetFreq ....    20
 Integral Threshold     Thresh          ....  1.000e-12 Eh
 Primitive CutOff       TCut            ....  1.000e-14 Eh

Convergence Tolerance:
 Convergence Check Mode ConvCheckMode   .... Total+1el-Energy
 Convergence forced     ConvForced      .... 0
 Energy Change          TolE            ....  1.000e-09 Eh
 1-El. energy change                    ....  1.000e-06 Eh
 DIIS Error             TolErr          ....  1.000e-08


Diagonalization of the overlap matrix:
Smallest eigenvalue                        ... 1.185e-03
Time for diagonalization                   ...    0.002 sec
Threshold for overlap eigenvalues          ... 1.000e-08
Number of eigenvalues below threshold      ... 0
Time for construction of square roots      ...    5.192 sec
Total time needed                          ...    5.194 sec

-------------------
DFT GRID GENERATION
-------------------

General Integration Accuracy     IntAcc      ...  4.340
Radial Grid Type                 RadialGrid  ... Gauss-Chebyshev
Angular Grid (max. acc.)         AngularGrid ... Lebedev-110
Angular grid pruning method      GridPruning ... 3 (G Style)
Weight generation scheme         WeightScheme... Becke
Basis function cutoff            BFCut       ...    1.0000e-12
Integration weight cutoff        WCut        ...    1.0000e-14
Grids for H and He will be reduced by one unit

# of grid points (after initial pruning)     ...  21052 (   0.0 sec)
# of grid points (after weights+screening)   ...  19269 (   0.0 sec)
nearest neighbour list constructed           ...    0.0 sec
Grid point re-assignment to atoms done       ...    0.0 sec
Grid point division into batches done        ...    0.0 sec
Reduced shell lists constructed in    0.1 sec

Total number of grid points                  ...    19269
Total number of batches                      ...      310
Average number of points per batch           ...       62
Average number of grid points per atom       ...      963
Average number of shells per batch           ...    51.36 (80.25%)
Average number of basis functions per batch  ...    89.17 (79.61%)
Average number of large shells per batch     ...    42.39 (82.54%)
Average number of large basis fcns per batch ...    73.26 (82.16%)
Maximum spatial batch extension              ...  17.32, 25.60, 21.50 au
Average spatial batch extension              ...   3.22,  3.76,  3.62 au

Time for grid setup =    4.436 sec

------------------------------
INITIAL GUESS: MODEL POTENTIAL
------------------------------
Loading Hartree-Fock densities                     ... done
Calculating cut-offs                               ... done
Setting up the integral package                    ... done
Initializing the effective Hamiltonian             ... done
Starting the Coulomb interaction                   ... done (   0.1 sec)
Reading the grid                                   ... done
Mapping shells                                     ... done
Starting the XC term evaluation                    ... done (   0.2 sec)
  promolecular density results
     # of electrons  =     49.985355517
     EX              =    -35.023324417
     EC              =     -1.578827075
     EX+EC           =    -36.602151491
Transforming the Hamiltonian                       ... done (   0.0 sec)
Diagonalizing the Hamiltonian                      ... done (   0.0 sec)
Back transforming the eigenvectors                 ... done (   0.0 sec)
Now organizing SCF variables                       ... done
                      ------------------
                      INITIAL GUESS DONE (   4.8 sec)
                      ------------------
--------------
SCF ITERATIONS
--------------
ITER       Energy         Delta-E        Max-DP      RMS-DP      [F,P]     Damp
               ***  Starting incremental Fock matrix formation  ***
  0   -236.4037220589   0.000000000000 0.04223970  0.00188926  0.1756824 0.7000
  1   -236.5239263557  -0.120204296771 0.02593474  0.00133468  0.0907856 0.7000
                               ***Turning on DIIS***
  2   -236.5707649250  -0.046838569265 0.03555124  0.00217899  0.0333555 0.0000
  3   -236.6346684599  -0.063903534881 0.01712561  0.00089894  0.0501762 0.0000
  4   -236.6559218541  -0.021253394240 0.00344406  0.00026464  0.0111081 0.0000
  5   -236.6569351370  -0.001013282861 0.00125456  0.00009343  0.0022899 0.0000
  6   -236.6569932135  -0.000058076582 0.00059208  0.00004705  0.0007891 0.0000
  7   -236.6569981750  -0.000004961471 0.00018113  0.00000510  0.0003537 0.0000
  8   -236.6569985931  -0.000000418098 0.00002596  0.00000110  0.0000450 0.0000
  9   -236.6569986024  -0.000000009241 0.00001777  0.00000042  0.0000268 0.0000
 10   -236.6569986044  -0.000000002007 0.00000284  0.00000012  0.0000063 0.0000
 11   -236.6569986046  -0.000000000202 0.00000068  0.00000003  0.0000011 0.0000
 12   -236.6569986046   0.000000000013 0.00000028  0.00000001  0.0000005 0.0000
                 **** Energy Check signals convergence ****

 Fermi smearing  (ALPHA): E(HOMO(Eh)) = -0.285548 MUE = -0.116865 gap=   9.180 eV
 Fermi smearing   (BETA): E(HOMO(Eh)) = -0.285548 MUE = -0.116865 gap=   9.180 eV

N_FOD(alpha) =  0.000000
 N_FOD(beta) =  0.000000
       N_FOD =  0.000000

               *****************************************************
               *                     SUCCESS                       *
               *           SCF CONVERGED AFTER  13 CYCLES          *
               *****************************************************

Setting up the final grid:

General Integration Accuracy     IntAcc      ...  4.670
Radial Grid Type                 RadialGrid  ... Gauss-Chebyshev
Angular Grid (max. acc.)         AngularGrid ... Lebedev-302
Angular grid pruning method      GridPruning ... 3 (G Style)
Weight generation scheme         WeightScheme... Becke
Basis function cutoff            BFCut       ...    1.0000e-12
Integration weight cutoff        WCut        ...    1.0000e-14
Grids for H and He will be reduced by one unit

# of grid points (after initial pruning)     ...  84788 (   0.0 sec)
# of grid points (after weights+screening)   ...  76330 (   0.2 sec)
nearest neighbour list constructed           ...    0.0 sec
Grid point re-assignment to atoms done       ...    0.0 sec
Grid point division into batches done        ...    0.3 sec
Reduced shell lists constructed in    0.6 sec

Total number of grid points                  ...    76330
Total number of batches                      ...     1202
Average number of points per batch           ...       63
Average number of grid points per atom       ...     3816
Average number of shells per batch           ...    48.13 (75.21%)
Average number of basis functions per batch  ...    83.08 (74.18%)
Average number of large shells per batch     ...    38.89 (80.80%)
Average number of large basis fcns per batch ...    66.71 (80.29%)
Maximum spatial batch extension              ...  18.28, 18.52, 19.07 au
Average spatial batch extension              ...   2.30,  2.43,  2.45 au

Final grid set up in    2.1 sec
Final integration                            ... done (   9.8 sec)
Change in XC energy                          ...    -0.000671704
Integrated number of electrons               ...    50.000132880
Previous integrated no of electrons          ...    49.995688792

----------------
TOTAL SCF ENERGY
----------------

Total Energy       :         -236.65767031 Eh           -6439.78260 eV

Components:
Nuclear Repulsion  :          253.87212683 Eh            6908.21178 eV
Electronic Energy  :         -490.52979714 Eh          -13347.99438 eV
One Electron Energy:         -819.53530398 Eh          -22300.68937 eV
Two Electron Energy:          329.00550684 Eh            8952.69499 eV

Virial components:
Potential Energy   :         -471.01166173 Eh          -12816.87891 eV
Kinetic Energy     :          234.35399142 Eh            6377.09631 eV
Virial Ratio       :            2.00982991


DFT components:
N(Alpha)           :       25.000066439908 electrons
N(Beta)            :       25.000066439908 electrons
N(Total)           :       50.000132879815 electrons
E(X)               :      -28.534984867119 Eh       
E(C)               :       -1.873712747065 Eh       
E(XC)              :      -30.408697614183 Eh       
DFET-embed. en.    :        0.000000000000 Eh       

---------------
SCF CONVERGENCE
---------------

  Last Energy change         ...    1.1966e-11  Tolerance :   1.0000e-09
  Last MAX-Density change    ...    6.1256e-08  Tolerance :   1.0000e-08
  Last RMS-Density change    ...    2.5444e-09  Tolerance :   1.0000e-09
  Last DIIS Error            ...    1.0106e-07  Tolerance :   1.0000e-08

             **** THE GBW FILE WAS UPDATED (orca8.gbw) ****
             **** DENSITY FILE WAS UPDATED (orca8.scfp) ****
             **** ENERGY FILE WAS UPDATED (orca8.en.tmp) ****
             **** THE GBW FILE WAS UPDATED (orca8.gbw) ****
             **** DENSITY FILE WAS UPDATED (orca8.scfp) ****
----------------
ORBITAL ENERGIES
----------------
                 SPIN UP ORBITALS
  NO   OCC          E(Eh)            E(eV) 
   0   1.0000     -10.167134      -276.6618 
   1   1.0000     -10.164551      -276.5915 
   2   1.0000     -10.163598      -276.5656 
   3   1.0000     -10.162395      -276.5328 
   4   1.0000     -10.161924      -276.5200 
   5   1.0000     -10.159400      -276.4513 
   6   1.0000      -0.807540       -21.9743 
   7   1.0000      -0.759509       -20.6673 
   8   1.0000      -0.693338       -18.8667 
   9   1.0000      -0.638422       -17.3723 
  10   1.0000      -0.576985       -15.7005 
  11   1.0000      -0.541791       -14.7429 
  12   1.0000      -0.472110       -12.8468 
  13   1.0000      -0.461044       -12.5456 
  14   1.0000      -0.437974       -11.9179 
  15   1.0000      -0.408460       -11.1147 
  16   1.0000      -0.401348       -10.9212 
  17   1.0000      -0.395545       -10.7633 
  18   1.0000      -0.366144        -9.9633 
  19   1.0000      -0.343483        -9.3467 
  20   1.0000      -0.336385        -9.1535 
  21   1.0000      -0.330668        -8.9979 
  22   1.0000      -0.315282        -8.5793 
  23   1.0000      -0.305598        -8.3157 
  24   1.0000      -0.285548        -7.7702 
  25   0.0000       0.051818         1.4100 
  26   0.0000       0.066063         1.7977 
  27   0.0000       0.072450         1.9715 
  28   0.0000       0.080744         2.1972 
  29   0.0000       0.108835         2.9615 
  30   0.0000       0.112762         3.0684 
  31   0.0000       0.119332         3.2472 
  32   0.0000       0.140826         3.8321 
  33   0.0000       0.147228         4.0063 
  34   0.0000       0.151318         4.1176 
  35   0.0000       0.169717         4.6182 
  36   0.0000       0.185727         5.0539 
  37   0.0000       0.190858         5.1935 
  38   0.0000       0.208448         5.6721 
  39   0.0000       0.226340         6.1590 
  40   0.0000       0.246538         6.7087 
  41   0.0000       0.282579         7.6894 
  42   0.0000       0.306884         8.3507 
  43   0.0000       0.335424         9.1274 
  44   0.0000       0.402928        10.9642 
  45   0.0000       0.411819        11.2062 
  46   0.0000       0.436633        11.8814 
  47   0.0000       0.458522        12.4770 
  48   0.0000       0.484417        13.1817 
  49   0.0000       0.510586        13.8938 
  50   0.0000       0.525242        14.2926 
  51   0.0000       0.542776        14.7697 
  52   0.0000       0.576977        15.7004 
  53   0.0000       0.580682        15.8012 
  54   0.0000       0.634459        17.2645 
  55   0.0000       0.641566        17.4579 
  56   0.0000       0.654028        17.7970 
  57   0.0000       0.654954        17.8222 
  58   0.0000       0.664581        18.0842 
  59   0.0000       0.676104        18.3977 
  60   0.0000       0.688215        18.7273 
  61   0.0000       0.694068        18.8865 
  62   0.0000       0.696306        18.9474 
  63   0.0000       0.700580        19.0637 
  64   0.0000       0.709484        19.3060 
  65   0.0000       0.714507        19.4427 
  66   0.0000       0.718789        19.5592 
  67   0.0000       0.724624        19.7180 
  68   0.0000       0.731666        19.9097 
  69   0.0000       0.733069        19.9478 
  70   0.0000       0.742515        20.2049 
  71   0.0000       0.759822        20.6758 
  72   0.0000       0.770635        20.9701 
  73   0.0000       0.791245        21.5309 
  74   0.0000       0.794865        21.6294 
  75   0.0000       0.851885        23.1810 
  76   0.0000       0.924452        25.1556 
  77   0.0000       0.969195        26.3731 
  78   0.0000       1.008129        27.4326 
  79   0.0000       1.054644        28.6983 
  80   0.0000       1.128875        30.7182 
  81   0.0000       1.271884        34.6097 
  82   0.0000       1.382582        37.6220 
  83   0.0000       1.428448        38.8701 
  84   0.0000       1.577440        42.9243 
  85   0.0000       1.650797        44.9205 
  86   0.0000       1.720552        46.8186 
  87   0.0000       1.785525        48.5866 
  88   0.0000       1.822496        49.5926 
  89   0.0000       1.873850        50.9900 
  90   0.0000       1.885342        51.3028 
  91   0.0000       1.914884        52.1066 
  92   0.0000       1.946406        52.9644 
  93   0.0000       1.983304        53.9684 
  94   0.0000       1.992016        54.2055 
  95   0.0000       2.031416        55.2776 
  96   0.0000       2.049654        55.7739 
  97   0.0000       2.072133        56.3856 
  98   0.0000       2.144936        58.3667 
  99   0.0000       2.168759        59.0149 
 100   0.0000       2.233097        60.7657 
 101   0.0000       2.261171        61.5296 
 102   0.0000       2.305488        62.7355 
 103   0.0000       2.337998        63.6202 
 104   0.0000       2.373482        64.5857 
 105   0.0000       2.404022        65.4168 
 106   0.0000       2.444914        66.5295 
 107   0.0000       2.517193        68.4963 
 108   0.0000       2.586422        70.3801 
 109   0.0000       2.666334        72.5546 
 110   0.0000       2.754660        74.9581 
 111   0.0000       2.805097        76.3306 

                 SPIN DOWN ORBITALS
  NO   OCC          E(Eh)            E(eV) 
   0   1.0000     -10.167134      -276.6618 
   1   1.0000     -10.164551      -276.5915 
   2   1.0000     -10.163598      -276.5656 
   3   1.0000     -10.162395      -276.5328 
   4   1.0000     -10.161924      -276.5200 
   5   1.0000     -10.159400      -276.4513 
   6   1.0000      -0.807540       -21.9743 
   7   1.0000      -0.759509       -20.6673 
   8   1.0000      -0.693338       -18.8667 
   9   1.0000      -0.638422       -17.3723 
  10   1.0000      -0.576985       -15.7005 
  11   1.0000      -0.541791       -14.7429 
  12   1.0000      -0.472110       -12.8468 
  13   1.0000      -0.461044       -12.5456 
  14   1.0000      -0.437974       -11.9179 
  15   1.0000      -0.408460       -11.1147 
  16   1.0000      -0.401348       -10.9212 
  17   1.0000      -0.395545       -10.7633 
  18   1.0000      -0.366144        -9.9633 
  19   1.0000      -0.343483        -9.3467 
  20   1.0000      -0.336385        -9.1535 
  21   1.0000      -0.330668        -8.9979 
  22   1.0000      -0.315282        -8.5793 
  23   1.0000      -0.305598        -8.3157 
  24   1.0000      -0.285548        -7.7702 
  25   0.0000       0.051818         1.4100 
  26   0.0000       0.066063         1.7977 
  27   0.0000       0.072450         1.9715 
  28   0.0000       0.080744         2.1972 
  29   0.0000       0.108835         2.9615 
  30   0.0000       0.112762         3.0684 
  31   0.0000       0.119332         3.2472 
  32   0.0000       0.140826         3.8321 
  33   0.0000       0.147228         4.0063 
  34   0.0000       0.151318         4.1176 
  35   0.0000       0.169717         4.6182 
  36   0.0000       0.185727         5.0539 
  37   0.0000       0.190858         5.1935 
  38   0.0000       0.208448         5.6721 
  39   0.0000       0.226340         6.1590 
  40   0.0000       0.246538         6.7087 
  41   0.0000       0.282579         7.6894 
  42   0.0000       0.306884         8.3507 
  43   0.0000       0.335424         9.1274 
  44   0.0000       0.402928        10.9642 
  45   0.0000       0.411819        11.2062 
  46   0.0000       0.436633        11.8814 
  47   0.0000       0.458522        12.4770 
  48   0.0000       0.484417        13.1817 
  49   0.0000       0.510586        13.8938 
  50   0.0000       0.525242        14.2926 
  51   0.0000       0.542776        14.7697 
  52   0.0000       0.576977        15.7004 
  53   0.0000       0.580682        15.8012 
  54   0.0000       0.634459        17.2645 
  55   0.0000       0.641566        17.4579 
  56   0.0000       0.654028        17.7970 
  57   0.0000       0.654954        17.8222 
  58   0.0000       0.664581        18.0842 
  59   0.0000       0.676104        18.3977 
  60   0.0000       0.688215        18.7273 
  61   0.0000       0.694068        18.8865 
  62   0.0000       0.696306        18.9474 
  63   0.0000       0.700580        19.0637 
  64   0.0000       0.709484        19.3060 
  65   0.0000       0.714507        19.4427 
  66   0.0000       0.718789        19.5592 
  67   0.0000       0.724624        19.7180 
  68   0.0000       0.731666        19.9097 
  69   0.0000       0.733069        19.9478 
  70   0.0000       0.742515        20.2049 
  71   0.0000       0.759822        20.6758 
  72   0.0000       0.770635        20.9701 
  73   0.0000       0.791245        21.5309 
  74   0.0000       0.794865        21.6294 
  75   0.0000       0.851885        23.1810 
  76   0.0000       0.924452        25.1556 
  77   0.0000       0.969195        26.3731 
  78   0.0000       1.008129        27.4326 
  79   0.0000       1.054644        28.6983 
  80   0.0000       1.128875        30.7182 
  81   0.0000       1.271884        34.6097 
  82   0.0000       1.382582        37.6220 
  83   0.0000       1.428448        38.8701 
  84   0.0000       1.577440        42.9243 
  85   0.0000       1.650797        44.9205 
  86   0.0000       1.720552        46.8186 
  87   0.0000       1.785525        48.5866 
  88   0.0000       1.822496        49.5926 
  89   0.0000       1.873850        50.9900 
  90   0.0000       1.885342        51.3028 
  91   0.0000       1.914884        52.1066 
  92   0.0000       1.946406        52.9644 
  93   0.0000       1.983304        53.9684 
  94   0.0000       1.992016        54.2055 
  95   0.0000       2.031416        55.2776 
  96   0.0000       2.049654        55.7739 
  97   0.0000       2.072133        56.3856 
  98   0.0000       2.144936        58.3667 
  99   0.0000       2.168759        59.0149 
 100   0.0000       2.233097        60.7657 
 101   0.0000       2.261171        61.5296 
 102   0.0000       2.305488        62.7355 
 103   0.0000       2.337998        63.6202 
 104   0.0000       2.373482        64.5857 
 105   0.0000       2.404022        65.4168 
 106   0.0000       2.444914        66.5295 
 107   0.0000       2.517193        68.4963 
 108   0.0000       2.586422        70.3801 
 109   0.0000       2.666334        72.5546 
 110   0.0000       2.754660        74.9581 
 111   0.0000       2.805097        76.3306 

                    ********************************
                    * MULLIKEN POPULATION ANALYSIS *
                    ********************************

------------------------------------------
FOD BASED MULLIKEN REDUCED ORBITAL CHARGES
------------------------------------------
  0 C s       :    -0.000000  s :    -0.000000
      pz      :     0.000000  p :     0.000000
      px      :     0.000000
      py      :     0.000000
      dz2     :     0.000000  d :     0.000000
      dxz     :     0.000000
      dyz     :     0.000000
      dx2y2   :     0.000000
      dxy     :     0.000000
  1 C s       :    -0.000000  s :    -0.000000
      pz      :     0.000000  p :     0.000000
      px      :     0.000000
      py      :     0.000000
      dz2     :     0.000000  d :     0.000000
      dxz     :     0.000000
      dyz     :     0.000000
      dx2y2   :     0.000000
      dxy     :     0.000000
  2 C s       :    -0.000000  s :    -0.000000
      pz      :     0.000000  p :     0.000000
      px      :     0.000000
      py      :     0.000000
      dz2     :     0.000000  d :     0.000000
      dxz     :     0.000000
      dyz     :     0.000000
      dx2y2   :     0.000000
      dxy     :     0.000000
  3 C s       :    -0.000000  s :    -0.000000
      pz      :     0.000000  p :     0.000000
      px      :     0.000000
      py      :     0.000000
      dz2     :     0.000000  d :     0.000000
      dxz     :     0.000000
      dyz     :     0.000000
      dx2y2   :     0.000000
      dxy     :     0.000000
  4 C s       :    -0.000000  s :    -0.000000
      pz      :     0.000000  p :     0.000000
      px      :     0.000000
      py      :     0.000000
      dz2     :     0.000000  d :     0.000000
      dxz     :     0.000000
      dyz     :     0.000000
      dx2y2   :     0.000000
      dxy     :     0.000000
  5 C s       :    -0.000000  s :    -0.000000
      pz      :     0.000000  p :     0.000000
      px      :     0.000000
      py      :     0.000000
      dz2     :     0.000000  d :     0.000000
      dxz     :     0.000000
      dyz     :     0.000000
      dx2y2   :     0.000000
      dxy     :     0.000000
  6 H s       :     0.000000  s :     0.000000
  7 H s       :     0.000000  s :     0.000000
  8 H s       :     0.000000  s :     0.000000
  9 H s       :     0.000000  s :     0.000000
 10 H s       :     0.000000  s :     0.000000
 11 H s       :     0.000000  s :     0.000000
 12 H s       :     0.000000  s :     0.000000
 13 H s       :     0.000000  s :     0.000000
 14 H s       :     0.000000  s :     0.000000
 15 H s       :     0.000000  s :     0.000000
 16 H s       :     0.000000  s :     0.000000
 17 H s       :     0.000000  s :     0.000000
 18 H s       :     0.000000  s :     0.000000
 19 H s       :     0.000000  s :     0.000000


                     *******************************
                     * LOEWDIN POPULATION ANALYSIS *
                     *******************************

-------------------------------------------
LOEWDIN ATOMIC CHARGES AND SPIN POPULATIONS
-------------------------------------------
   0 C :   -0.319207    0.000000
   1 C :   -0.219777    0.000000
   2 C :   -0.217100    0.000000
   3 C :   -0.213628    0.000000
   4 C :   -0.221511    0.000000
   5 C :   -0.319774    0.000000
   6 H :    0.109913    0.000000
   7 H :    0.106631    0.000000
   8 H :    0.110957    0.000000
   9 H :    0.103441    0.000000
  10 H :    0.103772    0.000000
  11 H :    0.105601    0.000000
  12 H :    0.111574    0.000000
  13 H :    0.109583    0.000000
  14 H :    0.106918    0.000000
  15 H :    0.106481    0.000000
  16 H :    0.108711    0.000000
  17 H :    0.109573    0.000000
  18 H :    0.109017    0.000000
  19 H :    0.108825    0.000000

----------------------------------------------------
LOEWDIN REDUCED ORBITAL CHARGES AND SPIN POPULATIONS
----------------------------------------------------
CHARGE
  0 C s       :     2.952176  s :     2.952176
      pz      :     1.096414  p :     3.291871
      px      :     1.085449
      py      :     1.110008
      dz2     :     0.006602  d :     0.075160
      dxz     :     0.019149
      dyz     :     0.023032
      dx2y2   :     0.020011
      dxy     :     0.006365
  1 C s       :     2.910151  s :     2.910151
      pz      :     1.076135  p :     3.217122
      px      :     1.057468
      py      :     1.083519
      dz2     :     0.016248  d :     0.092504
      dxz     :     0.023638
      dyz     :     0.017396
      dx2y2   :     0.023922
      dxy     :     0.011301
  2 C s       :     2.900951  s :     2.900951
      pz      :     1.083252  p :     3.222680
      px      :     1.061179
      py      :     1.078250
      dz2     :     0.008307  d :     0.093469
      dxz     :     0.019885
      dyz     :     0.028440
      dx2y2   :     0.014310
      dxy     :     0.022527
  3 C s       :     2.892102  s :     2.892102
      pz      :     1.088471  p :     3.222940
      px      :     1.066196
      py      :     1.068274
      dz2     :     0.021189  d :     0.098586
      dxz     :     0.015622
      dyz     :     0.013836
      dx2y2   :     0.025974
      dxy     :     0.021965
  4 C s       :     2.892828  s :     2.892828
      pz      :     1.084712  p :     3.229390
      px      :     1.067728
      py      :     1.076950
      dz2     :     0.016765  d :     0.099293
      dxz     :     0.020286
      dyz     :     0.015956
      dx2y2   :     0.025726
      dxy     :     0.020561
  5 C s       :     2.948749  s :     2.948749
      pz      :     1.100390  p :     3.293296
      px      :     1.100527
      py      :     1.092380
      dz2     :     0.018043  d :     0.077729
      dxz     :     0.007181
      dyz     :     0.021313
      dx2y2   :     0.022574
      dxy     :     0.008618
  6 H s       :     0.890087  s :     0.890087
  7 H s       :     0.893369  s :     0.893369
  8 H s       :     0.889043  s :     0.889043
  9 H s       :     0.896559  s :     0.896559
 10 H s       :     0.896228  s :     0.896228
 11 H s       :     0.894399  s :     0.894399
 12 H s       :     0.888426  s :     0.888426
 13 H s       :     0.890417  s :     0.890417
 14 H s       :     0.893082  s :     0.893082
 15 H s       :     0.893519  s :     0.893519
 16 H s       :     0.891289  s :     0.891289
 17 H s       :     0.890427  s :     0.890427
 18 H s       :     0.890983  s :     0.890983
 19 H s       :     0.891175  s :     0.891175

SPIN
  0 C s       :     0.000000  s :     0.000000
      pz      :     0.000000  p :     0.000000
      px      :     0.000000
      py      :     0.000000
      dz2     :     0.000000  d :     0.000000
      dxz     :     0.000000
      dyz     :     0.000000
      dx2y2   :     0.000000
      dxy     :     0.000000
  1 C s       :     0.000000  s :     0.000000
      pz      :     0.000000  p :     0.000000
      px      :     0.000000
      py      :     0.000000
      dz2     :     0.000000  d :     0.000000
      dxz     :     0.000000
      dyz     :     0.000000
      dx2y2   :     0.000000
      dxy     :     0.000000
  2 C s       :     0.000000  s :     0.000000
      pz      :     0.000000  p :     0.000000
      px      :     0.000000
      py      :     0.000000
      dz2     :     0.000000  d :     0.000000
      dxz     :     0.000000
      dyz     :     0.000000
      dx2y2   :     0.000000
      dxy     :     0.000000
  3 C s       :     0.000000  s :     0.000000
      pz      :     0.000000  p :     0.000000
      px      :     0.000000
      py      :     0.000000
      dz2     :     0.000000  d :     0.000000
      dxz     :     0.000000
      dyz     :     0.000000
      dx2y2   :     0.000000
      dxy     :     0.000000
  4 C s       :     0.000000  s :     0.000000
      pz      :     0.000000  p :     0.000000
      px      :     0.000000
      py      :     0.000000
      dz2     :     0.000000  d :     0.000000
      dxz     :     0.000000
      dyz     :     0.000000
      dx2y2   :     0.000000
      dxy     :     0.000000
  5 C s       :     0.000000  s :     0.000000
      pz      :     0.000000  p :     0.000000
      px      :     0.000000
      py      :     0.000000
      dz2     :     0.000000  d :     0.000000
      dxz     :     0.000000
      dyz     :     0.000000
      dx2y2   :     0.000000
      dxy     :     0.000000
  6 H s       :     0.000000  s :     0.000000
  7 H s       :     0.000000  s :     0.000000
  8 H s       :     0.000000  s :     0.000000
  9 H s       :     0.000000  s :     0.000000
 10 H s       :     0.000000  s :     0.000000
 11 H s       :     0.000000  s :     0.000000
 12 H s       :     0.000000  s :     0.000000
 13 H s       :     0.000000  s :     0.000000
 14 H s       :     0.000000  s :     0.000000
 15 H s       :     0.000000  s :     0.000000
 16 H s       :     0.000000  s :     0.000000
 17 H s       :     0.000000  s :     0.000000
 18 H s       :     0.000000  s :     0.000000
 19 H s       :     0.000000  s :     0.000000


                      *****************************
                      * MAYER POPULATION ANALYSIS *
                      *****************************

  NA   - Mulliken gross atomic population
  ZA   - Total nuclear charge
  QA   - Mulliken gross atomic charge
  VA   - Mayer's total valence
  BVA  - Mayer's bonded valence
  FA   - Mayer's free valence

  ATOM       NA         ZA         QA         VA         BVA        FA
  0 C      6.2601     6.0000    -0.2601     4.0133     4.0133     0.0000
  1 C      6.1617     6.0000    -0.1617     4.1042     4.1042     0.0000
  2 C      6.1498     6.0000    -0.1498     4.1089     4.1089     0.0000
  3 C      6.1287     6.0000    -0.1287     4.1336     4.1336     0.0000
  4 C      6.1432     6.0000    -0.1432     4.2032     4.2032     0.0000
  5 C      6.2660     6.0000    -0.2660     4.0892     4.0892    -0.0000
  6 H      0.9137     1.0000     0.0863     0.9531     0.9531     0.0000
  7 H      0.9112     1.0000     0.0888     0.9628     0.9628     0.0000
  8 H      0.9080     1.0000     0.0920     0.9534     0.9534     0.0000
  9 H      0.9314     1.0000     0.0686     0.9485     0.9485     0.0000
 10 H      0.9262     1.0000     0.0738     0.9521     0.9521     0.0000
 11 H      0.9266     1.0000     0.0734     0.9534     0.9534     0.0000
 12 H      0.9202     1.0000     0.0798     0.9629     0.9629     0.0000
 13 H      0.9327     1.0000     0.0673     0.9462     0.9462     0.0000
 14 H      0.9324     1.0000     0.0676     0.9574     0.9574     0.0000
 15 H      0.9286     1.0000     0.0714     0.9450     0.9450     0.0000
 16 H      0.9349     1.0000     0.0651     0.9431     0.9431     0.0000
 17 H      0.9084     1.0000     0.0916     0.9503     0.9503     0.0000
 18 H      0.9004     1.0000     0.0996     0.9504     0.9504     0.0000
 19 H      0.9160     1.0000     0.0840     0.9487     0.9487     0.0000

  Mayer bond orders larger than 0.100000
B(  0-C ,  1-C ) :   1.1215 B(  0-C ,  6-H ) :   0.9633 B(  0-C ,  7-H ) :   0.9635 
B(  0-C ,  8-H ) :   0.9637 B(  1-C ,  2-C ) :   1.0824 B(  1-C ,  9-H ) :   0.9440 
B(  1-C , 10-H ) :   0.9434 B(  2-C ,  3-C ) :   1.1447 B(  2-C , 11-H ) :   0.9325 
B(  2-C , 12-H ) :   0.9207 B(  3-C ,  4-C ) :   1.1185 B(  3-C , 13-H ) :   0.9250 
B(  3-C , 14-H ) :   0.9362 B(  4-C ,  5-C ) :   1.2068 B(  4-C , 15-H ) :   0.9354 
B(  4-C , 16-H ) :   0.9250 B(  5-C , 17-H ) :   0.9511 B(  5-C , 18-H ) :   0.9420 
B(  5-C , 19-H ) :   0.9516 

-------
TIMINGS
-------

Total SCF time: 0 days 0 hours 6 min 8 sec 

Total time                  ....     368.197 sec
Sum of individual times     ....     299.418 sec  ( 81.3%)

Fock matrix formation       ....     251.232 sec  ( 68.2%)
  XC integration            ....     124.533 sec  ( 49.6% of F)
    Basis function eval.    ....       1.516 sec  (  1.2% of XC)
    Density eval.           ....       1.256 sec  (  1.0% of XC)
    XC-Functional eval.     ....       0.346 sec  (  0.3% of XC)
    XC-Potential eval.      ....       1.743 sec  (  1.4% of XC)
Diagonalization             ....       0.093 sec  (  0.0%)
Density matrix formation    ....      16.694 sec  (  4.5%)
Population analysis         ....      16.448 sec  (  4.5%)
Initial guess               ....       0.341 sec  (  0.1%)
Orbital Transformation      ....       0.000 sec  (  0.0%)
Orbital Orthonormalization  ....       0.000 sec  (  0.0%)
DIIS solution               ....       8.026 sec  (  2.2%)
Grid generation             ....       6.583 sec  (  1.8%)


-------------------------------------------------------------------------------
                          DFT DISPERSION CORRECTION                            
                                                                               
                              DFTD3 V3.1  Rev 1                                
                          USING Becke-Johnson damping                          
-------------------------------------------------------------------------------
The B3LYP functional is recognized
Active option DFTDOPT                   ...         4   

molecular C6(AA) [au] = 2517.941949 


            DFT-D V3
 parameters
 s6 scaling factor         :     1.0000 
 a1 scaling factor         :     0.3981 
 s8 scaling factor         :     1.9889 
 a2 scaling factor         :     4.4211 
 ad hoc parameters k1-k3   :    16.0000     1.3333    -4.0000 

 Edisp/kcal,au: -16.042827069128  -0.025565869554 
 E6   /kcal   :  -8.054287900 
 E8   /kcal   :  -7.988539169 
 % E8         :  49.795083715 

-------------------------   ----------------
Dispersion correction           -0.025565870
-------------------------   ----------------


-------------------------   --------------------
FINAL SINGLE POINT ENERGY      -236.683236177688
-------------------------   --------------------

------------------------------------------------------------------------------
                         ORCA SCF GRADIENT CALCULATION
------------------------------------------------------------------------------

Gradient of the Kohn-Sham DFT energy:
Kohn-Sham wavefunction type      ... UKS
Hartree-Fock exchange scaling    ...    0.200
Number of operators              ...    2
Number of atoms                  ...   20
Basis set dimensions             ...  112
Integral neglect threshold       ... 1.0e-12
Integral primitive cutoff        ... 1.0e-14

Nuclear repulsion gradient       ... done
One Electron Gradient            ... done
Pre-screening matrix             ... done
Starting the two electron gradient:
Two electron gradient done
Exchange-correlation gradient    ... done
Dispersion correction            ... done

------------------
CARTESIAN GRADIENT
------------------

   1   C   :   -0.025612834   -0.002409499   -0.001528948
   2   C   :   -0.000141510    0.011656219   -0.009400666
   3   C   :   -0.028562862   -0.021916071   -0.008241499
   4   C   :   -0.022564983    0.033182155    0.019428927
   5   C   :    0.042641171    0.014245793    0.017174630
   6   C   :    0.039027768   -0.012330112   -0.002148014
   7   H   :    0.001804405    0.006978346    0.007287416
   8   H   :   -0.001541360    0.000144966    0.001187545
   9   H   :   -0.002709556   -0.004313852    0.000702385
  10   H   :   -0.002570863   -0.003721667    0.002322930
  11   H   :   -0.000897200   -0.010423133   -0.005884861
  12   H   :    0.009140615    0.000796369   -0.007037720
  13   H   :    0.009436505    0.000417605   -0.000030139
  14   H   :    0.004995634    0.002221417   -0.007265036
  15   H   :    0.002762010   -0.007421334    0.005471237
  16   H   :   -0.007895157   -0.003638890    0.004795526
  17   H   :   -0.000247119    0.003060298   -0.008320096
  18   H   :   -0.007419001    0.002537141   -0.010320953
  19   H   :   -0.003365589   -0.003919386    0.001880913
  20   H   :   -0.006280075   -0.005146365   -0.000073577

Difference to translation invariance:
           :    0.0000000000    0.0000000000    0.0000000000

Norm of the cartesian gradient     ...    0.0968559622
RMS gradient                       ...    0.0125040510
MAX gradient                       ...    0.0426411712

-------
TIMINGS
-------

Total SCF gradient time            ...       10.673 sec

One electron gradient       ....       0.078 sec  (  0.7%)
Prescreening matrices       ....       0.043 sec  (  0.4%)
Two electron gradient       ....       4.738 sec  ( 44.4%)
XC gradient                 ....       5.615 sec  ( 52.6%)
------------------------------------------------------------------------------
                         ORCA GEOMETRY RELAXATION STEP
------------------------------------------------------------------------------

Reading the OPT-File                    .... done
Getting information on internals        .... done
Copying old internal coords+grads       .... done
Making the new internal coordinates     .... (new redundants).... done
Validating the new internal coordinates .... (new redundants).... done
Calculating the B-matrix                .... done
Calculating the G,G- and P matrices     .... done
Transforming gradient to internals      .... done
Projecting the internal gradient        .... done
Number of atoms                         ....  20
Number of internal coordinates          .... 100
Current Energy                          ....  -236.683236178 Eh
Current gradient norm                   ....     0.096855962 Eh/bohr
Maximum allowed component of the step   ....  0.300
Current trust radius                    ....  0.300
Evaluating the initial hessian          ....  (Almloef) done
Projecting the Hessian                  .... done
Forming the augmented Hessian           .... done
Diagonalizing the augmented Hessian     .... done
Last element of RFO vector              ....  0.942816998
Lowest eigenvalues of augmented Hessian:
 -0.029576708  0.012004814  0.013274316  0.014569046  0.015947091
Length of the computed step             ....  0.353526537
Warning: the length of the step is outside the trust region - taking restricted step instead
The input lambda is                     ....    -0.029577
   iter:   1  x=   -0.043523  g=    2.508234 f(x)=     0.034981
   iter:   2  x=   -0.050456  g=    1.355107 f(x)=     0.009395
   iter:   3  x=   -0.051414  g=    1.076129 f(x)=     0.001031
   iter:   4  x=   -0.051429  g=    1.045351 f(x)=     0.000015
   iter:   5  x=   -0.051429  g=    1.044906 f(x)=     0.000000
   iter:   6  x=   -0.051429  g=    1.044906 f(x)=     0.000000
The output lambda is                    ....    -0.051429 (6 iterations)
The final length of the internal step   ....  0.300000000
Converting the step to cartesian space:
 Initial RMS(Int)=    0.0300000000
Transforming coordinates:
 Iter   0:  RMS(Cart)=    0.1284111126 RMS(Int)=    0.0300253925
 Iter   1:  RMS(Cart)=    0.0025411785 RMS(Int)=    0.0011205622
 Iter   2:  RMS(Cart)=    0.0001597246 RMS(Int)=    0.0000593125
 Iter   3:  RMS(Cart)=    0.0000084941 RMS(Int)=    0.0000041213
 Iter   4:  RMS(Cart)=    0.0000005227 RMS(Int)=    0.0000002286
 Iter   5:  RMS(Cart)=    0.0000000274 RMS(Int)=    0.0000000155
done
Storing new coordinates                 .... done

                                .--------------------.
          ----------------------|Geometry convergence|-------------------------
          Item                value                   Tolerance       Converged
          ---------------------------------------------------------------------
          RMS gradient        0.0104823393            0.0001000000      NO
          MAX gradient        0.0560267174            0.0003000000      NO
          RMS step            0.0300000000            0.0020000000      NO
          MAX step            0.1111064267            0.0040000000      NO
          ........................................................
          Max(Bonds)      0.0588      Max(Angles)    4.45
          Max(Dihed)        3.65      Max(Improp)    0.00
          ---------------------------------------------------------------------

The optimization has not yet converged - more geometry cycles are needed


    ---------------------------------------------------------------------------
                         Redundant Internal Coordinates
                            (Angstroem and degrees)

        Definition                    Value    dE/dq     Step     New-Value
    ----------------------------------------------------------------------------
     1. B(C   1,C   0)                1.5075 -0.026699  0.0309    1.5384   
     2. B(C   2,C   1)                1.5246 -0.027962  0.0342    1.5588   
     3. B(C   3,C   2)                1.4837 -0.046745  0.0501    1.5338   
     4. B(C   4,C   3)                1.4776 -0.056027  0.0588    1.5364   
     5. B(C   5,C   4)                1.4946 -0.028523  0.0317    1.5263   
     6. B(H   6,C   0)                1.1175  0.006885 -0.0097    1.1078   
     7. B(H   7,C   0)                1.1038 -0.000576  0.0008    1.1046   
     8. B(H   8,C   0)                1.1090  0.003181 -0.0043    1.1047   
     9. B(H   9,C   1)                1.1042 -0.000286  0.0004    1.1045   
    10. B(H  10,C   1)                1.1180  0.008595 -0.0121    1.1059   
    11. B(H  11,C   2)                1.1187  0.008376 -0.0118    1.1069   
    12. B(H  12,C   2)                1.0921 -0.004292  0.0056    1.0976   
    13. B(H  13,C   3)                1.1199  0.008099 -0.0115    1.1085   
    14. B(H  14,C   3)                1.1201  0.009508 -0.0135    1.1067   
    15. B(H  15,C   4)                1.1197  0.008135 -0.0115    1.1082   
    16. B(H  16,C   4)                1.1202  0.007474 -0.0106    1.1096   
    17. B(H  17,C   5)                1.1181  0.008067 -0.0113    1.1067   
    18. B(H  18,C   5)                1.1013 -0.000149  0.0002    1.1015   
    19. B(H  19,C   5)                1.1214  0.007092 -0.0101    1.1114   
    20. A(H   7,C   0,H   8)          108.26  0.003075   -0.60    107.66   
    21. A(C   1,C   0,H   7)          111.51 -0.000984    0.25    111.75   
    22. A(C   1,C   0,H   6)          109.93 -0.007247    1.20    111.13   
    23. A(H   6,C   0,H   7)          106.19  0.002470   -0.11    106.08   
    24. A(H   6,C   0,H   8)          109.50  0.006610   -1.23    108.27   
    25. A(C   1,C   0,H   8)          111.30 -0.003340    0.42    111.72   
    26. A(C   2,C   1,H  10)          108.19  0.004052   -0.16    108.02   
    27. A(C   0,C   1,H  10)          106.61  0.002150    0.23    106.84   
    28. A(C   2,C   1,H   9)          111.62  0.005407   -0.92    110.70   
    29. A(C   0,C   1,H   9)          112.64  0.008123   -1.44    111.20   
    30. A(H   9,C   1,H  10)          105.85 -0.001540   -0.58    105.27   
    31. A(C   0,C   1,C   2)          111.55 -0.017482    2.78    114.32   
    32. A(H  11,C   2,H  12)          106.33 -0.003380   -0.77    105.55   
    33. A(C   1,C   2,C   3)          109.61 -0.027238    4.45    114.06   
    34. A(C   3,C   2,H  11)          110.87  0.007710   -1.37    109.50   
    35. A(C   1,C   2,H  11)          106.23  0.006209   -0.22    106.01   
    36. A(C   1,C   2,H  12)          106.75  0.004632    0.17    106.92   
    37. A(C   3,C   2,H  12)          116.49  0.012370   -2.19    114.30   
    38. A(C   2,C   3,C   4)          117.25 -0.014172    2.16    119.41   
    39. A(H  13,C   3,H  14)          104.03 -0.001239   -0.44    103.59   
    40. A(C   4,C   3,H  14)          107.76  0.002071    0.04    107.80   
    41. A(C   2,C   3,H  14)          108.39  0.004305   -0.20    108.19   
    42. A(C   4,C   3,H  13)          111.41  0.008726   -1.65    109.76   
    43. A(C   2,C   3,H  13)          107.18  0.001644   -0.18    107.00   
    44. A(H  15,C   4,H  16)          104.89 -0.000970   -0.49    104.40   
    45. A(C   5,C   4,H  16)          105.86  0.003779   -0.14    105.71   
    46. A(C   3,C   4,H  16)          108.79  0.001707   -0.03    108.76   
    47. A(C   5,C   4,H  15)          106.66  0.001103    0.01    106.67   
    48. A(C   3,C   4,H  15)          113.08  0.008129   -1.53    111.55   
    49. A(C   3,C   4,C   5)          116.70 -0.012892    2.01    118.72   
    50. A(C   4,C   5,H  17)          112.62 -0.001831    0.05    112.67   
    51. A(H  18,C   5,H  19)          104.72  0.000837    0.36    105.08   
    52. A(H  17,C   5,H  19)          104.29  0.000495    0.64    104.93   
    53. A(C   4,C   5,H  19)          106.06 -0.007515    1.69    107.75   
    54. A(H  17,C   5,H  18)          113.08  0.005402   -1.75    111.33   
    55. A(C   4,C   5,H  18)          114.87  0.001600   -0.53    114.35   
    56. D(H   9,C   1,C   0,H   8)    138.44  0.000370    0.54    138.98   
    57. D(H  10,C   1,C   0,H   7)    143.78 -0.002461    1.55    145.33   
    58. D(H   9,C   1,C   0,H   7)   -100.55  0.001301    0.23   -100.33   
    59. D(H  10,C   1,C   0,H   8)     22.77 -0.003392    1.86     24.63   
    60. D(H   9,C   1,C   0,H   6)     16.94 -0.000832    1.00     17.94   
    61. D(C   2,C   1,C   0,H   8)    -95.13 -0.000022    0.40    -94.73   
    62. D(C   2,C   1,C   0,H   7)     25.87  0.000909    0.09     25.96   
    63. D(C   2,C   1,C   0,H   6)    143.37 -0.001224    0.86    144.23   
    64. D(H  10,C   1,C   0,H   6)    -98.72 -0.004594    2.32    -96.40   
    65. D(H  11,C   2,C   1,H   9)    100.66  0.001980   -1.83     98.83   
    66. D(C   3,C   2,C   1,H  10)    -23.44  0.003637   -2.50    -25.94   
    67. D(C   3,C   2,C   1,C   0)     93.52 -0.001229   -0.74     92.78   
    68. D(H  11,C   2,C   1,C   0)    -26.33  0.000710   -1.38    -27.71   
    69. D(H  11,C   2,C   1,H  10)   -143.28  0.005576   -3.14   -146.42   
    70. D(H  12,C   2,C   1,H  10)    103.56  0.004545   -2.24    101.31   
    71. D(H  12,C   2,C   1,H   9)    -12.50  0.000949   -0.93    -13.43   
    72. D(H  12,C   2,C   1,C   0)   -139.49 -0.000321   -0.48   -139.97   
    73. D(C   3,C   2,C   1,H   9)   -139.50  0.000041   -1.19   -140.69   
    74. D(H  14,C   3,C   2,H  11)    134.38 -0.004725    2.21    136.59   
    75. D(H  14,C   3,C   2,C   1)     17.42 -0.000311    0.59     18.01   
    76. D(H  13,C   3,C   2,H  12)    144.40  0.005046   -0.93    143.47   
    77. D(H  13,C   3,C   2,H  11)     22.65 -0.006092    2.90     25.55   
    78. D(H  13,C   3,C   2,C   1)    -94.31 -0.001678    1.28    -93.03   
    79. D(C   4,C   3,C   2,H  11)   -103.43 -0.008604    3.65    -99.78   
    80. D(C   4,C   3,C   2,H  12)     18.31  0.002533   -0.18     18.14   
    81. D(H  14,C   3,C   2,H  12)   -103.87  0.006412   -1.62   -105.49   
    82. D(C   4,C   3,C   2,C   1)    139.61 -0.004190    2.03    141.64   
    83. D(H  15,C   4,C   3,C   2)   -121.25  0.002819   -1.20   -122.45   
    84. D(C   5,C   4,C   3,H  14)    125.53 -0.002010    0.47    126.00   
    85. D(C   5,C   4,C   3,H  13)   -120.95  0.002221   -0.89   -121.85   
    86. D(C   5,C   4,C   3,C   2)      3.02  0.000615   -0.83      2.19   
    87. D(H  16,C   4,C   3,H  14)   -114.85 -0.004480    1.62   -113.23   
    88. D(H  16,C   4,C   3,H  13)     -1.34 -0.000249    0.26     -1.08   
    89. D(H  16,C   4,C   3,C   2)    122.64 -0.001855    0.32    122.96   
    90. D(H  15,C   4,C   3,H  14)      1.26  0.000193    0.10      1.36   
    91. D(H  15,C   4,C   3,H  13)    114.77  0.004424   -1.26    113.51   
    92. D(H  19,C   5,C   4,H  16)     65.51  0.001983   -1.43     64.08   
    93. D(H  19,C   5,C   4,H  15)    -45.83  0.000977   -0.82    -46.65   
    94. D(H  19,C   5,C   4,C   3)   -173.31 -0.001152   -0.29   -173.61   
    95. D(H  18,C   5,C   4,H  16)   -179.35 -0.000998   -0.17   -179.52   
    96. D(H  18,C   5,C   4,H  15)     69.32 -0.002004    0.44     69.75   
    97. D(H  18,C   5,C   4,C   3)    -58.17 -0.004133    0.96    -57.21   
    98. D(H  17,C   5,C   4,H  16)    -47.96  0.006651   -3.19    -51.14   
    99. D(H  17,C   5,C   4,H  15)   -159.29  0.005645   -2.58   -161.88   
   100. D(H  17,C   5,C   4,C   3)     73.22  0.003516   -2.06     71.17   
    ----------------------------------------------------------------------------

         *************************************************************
         *                GEOMETRY OPTIMIZATION CYCLE   2            *
         *************************************************************
---------------------------------
CARTESIAN COORDINATES (ANGSTROEM)
---------------------------------
  C      2.927870    0.013405   -0.081374
  C      1.708962    0.009415    0.857281
  C      0.382201    0.480628    0.188375
  C     -0.464263   -0.658850   -0.392625
  C     -1.994463   -0.601765   -0.266866
  C     -2.631002    0.618860    0.392242
  H      3.848645    0.305039    0.461196
  H      2.811083    0.744908   -0.900797
  H      3.094888   -0.978229   -0.538677
  H      1.910246    0.588392    1.776140
  H      1.569052   -1.034167    1.195618
  H      0.678232    1.171005   -0.624675
  H     -0.144056    1.102531    0.923930
  H     -0.179578   -0.763389   -1.458810
  H     -0.123115   -1.608498    0.061824
  H     -2.393045   -1.491760    0.259649
  H     -2.438073   -0.660269   -1.282293
  H     -2.564061    1.526592   -0.237365
  H     -2.279706    0.815984    1.417419
  H     -3.719817    0.420169    0.492849

----------------------------
CARTESIAN COORDINATES (A.U.)
----------------------------
  NO LB      ZA    FRAG     MASS         X           Y           Z
   0 C     6.0000    0    12.011    5.532872    0.025332   -0.153774
   1 C     6.0000    0    12.011    3.229471    0.017792    1.620027
   2 C     6.0000    0    12.011    0.722256    0.908255    0.355977
   3 C     6.0000    0    12.011   -0.877329   -1.245045   -0.741954
   4 C     6.0000    0    12.011   -3.768989   -1.137171   -0.504303
   5 C     6.0000    0    12.011   -4.971874    1.169475    0.741231
   6 H     1.0000    0     1.008    7.272885    0.576441    0.871533
   7 H     1.0000    0     1.008    5.312176    1.407672   -1.702260
   8 H     1.0000    0     1.008    5.848491   -1.848584   -1.017953
   9 H     1.0000    0     1.008    3.609842    1.111900    3.356418
  10 H     1.0000    0     1.008    2.965079   -1.954292    2.259391
  11 H     1.0000    0     1.008    1.281672    2.212878   -1.180464
  12 H     1.0000    0     1.008   -0.272226    2.083482    1.745975
  13 H     1.0000    0     1.008   -0.339353   -1.442597   -2.756751
  14 H     1.0000    0     1.008   -0.232653   -3.039620    0.116831
  15 H     1.0000    0     1.008   -4.522200   -2.819018    0.490666
  16 H     1.0000    0     1.008   -4.607291   -1.247728   -2.423183
  17 H     1.0000    0     1.008   -4.845372    2.884841   -0.448556
  18 H     1.0000    0     1.008   -4.308020    1.541986    2.678534
  19 H     1.0000    0     1.008   -7.029436    0.794005    0.931350

--------------------------------
INTERNAL COORDINATES (ANGSTROEM)
--------------------------------
 C      0   0   0     0.000000000000     0.00000000     0.00000000
 C      1   0   0     1.538448607377     0.00000000     0.00000000
 C      2   1   0     1.558772601158   114.31564280     0.00000000
 C      3   2   1     1.533776974307   114.06098223    92.76782500
 C      4   3   2     1.536420207400   119.40891067   141.62686209
 C      5   4   3     1.526279931055   118.71317454     2.17199570
 H      1   2   3     1.107817561175   111.12408478   144.22257316
 H      1   2   3     1.104622623436   111.74980996    25.94859241
 H      1   2   3     1.104698534803   111.71748306   265.25466800
 H      2   1   3     1.104549712976   111.21188391   233.72748642
 H      2   1   3     1.105943070625   106.81806096   119.38257882
 H      3   2   1     1.106934230222   106.02786807   332.27901621
 H      3   2   1     1.097611851367   106.96572710   220.05968913
 H      4   3   2     1.108478033753   107.01834426   266.95927776
 H      4   3   2     1.106678718461   108.16948032    17.99671315
 H      5   4   3     1.108231381086   111.54613062   237.54566535
 H      5   4   3     1.109642370619   108.74141940   122.94799453
 H      6   5   4     1.106736176208   112.64639519    71.16488285
 H      6   5   4     1.101478429107   114.33290821   302.78883114
 H      6   5   4     1.111358506945   107.74055639   186.39751058

---------------------------
INTERNAL COORDINATES (A.U.)
---------------------------
 C      0   0   0     0.000000000000     0.00000000     0.00000000
 C      1   0   0     2.907246539054     0.00000000     0.00000000
 C      2   1   0     2.945653321248   114.31564280     0.00000000
 C      3   2   1     2.898418431955   114.06098223    92.76782500
 C      4   3   2     2.903413418608   119.40891067   141.62686209
 C      5   4   3     2.884251073394   118.71317454     2.17199570
 H      1   2   3     2.093471796969   111.12408478   144.22257316
 H      1   2   3     2.087434239628   111.74980996    25.94859241
 H      1   2   3     2.087577691323   111.71748306   265.25466800
 H      2   1   3     2.087296458825   111.21188391   233.72748642
 H      2   1   3     2.089929523190   106.81806096   119.38257882
[...]
  32   0.0000       0.138746         3.7755 
  33   0.0000       0.147989         4.0270 
  34   0.0000       0.152814         4.1583 
  35   0.0000       0.163417         4.4468 
  36   0.0000       0.165442         4.5019 
  37   0.0000       0.179224         4.8769 
  38   0.0000       0.193432         5.2635 
  39   0.0000       0.228762         6.2249 
  40   0.0000       0.237559         6.4643 
  41   0.0000       0.241280         6.5656 
  42   0.0000       0.267744         7.2857 
  43   0.0000       0.271561         7.3895 
  44   0.0000       0.415211        11.2985 
  45   0.0000       0.422193        11.4885 
  46   0.0000       0.430484        11.7141 
  47   0.0000       0.432937        11.7808 
  48   0.0000       0.445246        12.1158 
  49   0.0000       0.456183        12.4134 
  50   0.0000       0.472092        12.8463 
  51   0.0000       0.506437        13.7808 
  52   0.0000       0.592508        16.1230 
  53   0.0000       0.604995        16.4627 
  54   0.0000       0.622767        16.9464 
  55   0.0000       0.634868        17.2756 
  56   0.0000       0.650927        17.7126 
  57   0.0000       0.665884        18.1196 
  58   0.0000       0.666098        18.1255 
  59   0.0000       0.683375        18.5956 
  60   0.0000       0.689375        18.7588 
  61   0.0000       0.691928        18.8283 
  62   0.0000       0.699547        19.0356 
  63   0.0000       0.708575        19.2813 
  64   0.0000       0.709470        19.3057 
  65   0.0000       0.721415        19.6307 
  66   0.0000       0.722073        19.6486 
  67   0.0000       0.729216        19.8430 
  68   0.0000       0.737136        20.0585 
  69   0.0000       0.740702        20.1555 
  70   0.0000       0.741934        20.1891 
  71   0.0000       0.758858        20.6496 
  72   0.0000       0.763067        20.7641 
  73   0.0000       0.775793        21.1104 
  74   0.0000       0.781302        21.2603 
  75   0.0000       0.883044        24.0289 
  76   0.0000       0.960847        26.1460 
  77   0.0000       0.980175        26.6719 
  78   0.0000       1.052965        28.6526 
  79   0.0000       1.092544        29.7296 
  80   0.0000       1.132303        30.8115 
  81   0.0000       1.176273        32.0080 
  82   0.0000       1.419726        38.6327 
  83   0.0000       1.454842        39.5883 
  84   0.0000       1.518572        41.3224 
  85   0.0000       1.612610        43.8814 
  86   0.0000       1.699541        46.2469 
  87   0.0000       1.767270        48.0899 
  88   0.0000       1.772955        48.2446 
  89   0.0000       1.866380        50.7868 
  90   0.0000       1.889464        51.4149 
  91   0.0000       1.917330        52.1732 
  92   0.0000       1.918117        52.1946 
  93   0.0000       1.948386        53.0183 
  94   0.0000       1.962706        53.4079 
  95   0.0000       1.978688        53.8428 
  96   0.0000       2.056088        55.9490 
  97   0.0000       2.105118        57.2832 
  98   0.0000       2.108245        57.3683 
  99   0.0000       2.174729        59.1774 
 100   0.0000       2.216454        60.3128 
 101   0.0000       2.225804        60.5672 
 102   0.0000       2.258602        61.4597 
 103   0.0000       2.300477        62.5992 
 104   0.0000       2.320720        63.1500 
 105   0.0000       2.361250        64.2529 
 106   0.0000       2.364519        64.3418 
 107   0.0000       2.540688        69.1356 
 108   0.0000       2.581884        70.2566 
 109   0.0000       2.606162        70.9173 
 110   0.0000       2.680966        72.9528 
 111   0.0000       2.750528        74.8457 

                    ********************************
                    * MULLIKEN POPULATION ANALYSIS *
                    ********************************

------------------------------------------
FOD BASED MULLIKEN REDUCED ORBITAL CHARGES
------------------------------------------
  0 C s       :    -0.000000  s :    -0.000000
      pz      :     0.000000  p :     0.000000
      px      :     0.000000
      py      :     0.000000
      dz2     :     0.000000  d :     0.000000
      dxz     :     0.000000
      dyz     :     0.000000
      dx2y2   :     0.000000
      dxy     :     0.000000
  1 C s       :    -0.000000  s :    -0.000000
      pz      :     0.000000  p :     0.000000
      px      :     0.000000
      py      :     0.000000
      dz2     :     0.000000  d :     0.000000
      dxz     :     0.000000
      dyz     :     0.000000
      dx2y2   :     0.000000
      dxy     :     0.000000
  2 C s       :    -0.000000  s :    -0.000000
      pz      :     0.000000  p :     0.000000
      px      :     0.000000
      py      :     0.000000
      dz2     :     0.000000  d :     0.000000
      dxz     :     0.000000
      dyz     :     0.000000
      dx2y2   :     0.000000
      dxy     :     0.000000
  3 C s       :    -0.000000  s :    -0.000000
      pz      :     0.000000  p :     0.000000
      px      :     0.000000
      py      :     0.000000
      dz2     :     0.000000  d :     0.000000
      dxz     :     0.000000
      dyz     :     0.000000
      dx2y2   :     0.000000
      dxy     :     0.000000
  4 C s       :    -0.000000  s :    -0.000000
      pz      :     0.000000  p :     0.000000
      px      :     0.000000
      py      :     0.000000
      dz2     :     0.000000  d :     0.000000
      dxz     :     0.000000
      dyz     :     0.000000
      dx2y2   :     0.000000
      dxy     :     0.000000
  5 C s       :    -0.000000  s :    -0.000000
      pz      :     0.000000  p :     0.000000
      px      :     0.000000
      py      :     0.000000
      dz2     :     0.000000  d :     0.000000
      dxz     :     0.000000
      dyz     :     0.000000
      dx2y2   :     0.000000
      dxy     :     0.000000
  6 H s       :     0.000000  s :     0.000000
  7 H s       :     0.000000  s :     0.000000
  8 H s       :     0.000000  s :     0.000000
  9 H s       :     0.000000  s :     0.000000
 10 H s       :     0.000000  s :     0.000000
 11 H s       :     0.000000  s :     0.000000
 12 H s       :     0.000000  s :     0.000000
 13 H s       :     0.000000  s :     0.000000
 14 H s       :     0.000000  s :     0.000000
 15 H s       :     0.000000  s :     0.000000
 16 H s       :     0.000000  s :     0.000000
 17 H s       :     0.000000  s :     0.000000
 18 H s       :     0.000000  s :     0.000000
 19 H s       :     0.000000  s :     0.000000


                     *******************************
                     * LOEWDIN POPULATION ANALYSIS *
                     *******************************

-------------------------------------------
LOEWDIN ATOMIC CHARGES AND SPIN POPULATIONS
-------------------------------------------
   0 C :   -0.322019    0.000000
   1 C :   -0.217005    0.000000
   2 C :   -0.213801    0.000000
   3 C :   -0.213820    0.000000
   4 C :   -0.216992    0.000000
   5 C :   -0.322020    0.000000
   6 H :    0.111348    0.000000
   7 H :    0.108772    0.000000
   8 H :    0.108777    0.000000
   9 H :    0.106998    0.000000
  10 H :    0.106097    0.000000
  11 H :    0.104259    0.000000
  12 H :    0.106597    0.000000
  13 H :    0.106557    0.000000
  14 H :    0.104301    0.000000
  15 H :    0.106988    0.000000
  16 H :    0.106079    0.000000
  17 H :    0.108854    0.000000
  18 H :    0.108694    0.000000
  19 H :    0.111335    0.000000

----------------------------------------------------
LOEWDIN REDUCED ORBITAL CHARGES AND SPIN POPULATIONS
----------------------------------------------------
CHARGE
  0 C s       :     2.952175  s :     2.952175
      pz      :     1.095343  p :     3.296571
      px      :     1.091515
      py      :     1.109712
      dz2     :     0.012415  d :     0.073273
      dxz     :     0.013468
      dyz     :     0.020198
      dx2y2   :     0.019505
      dxy     :     0.007688
  1 C s       :     2.911167  s :     2.911167
      pz      :     1.077125  p :     3.215340
      px      :     1.052140
      py      :     1.086075
      dz2     :     0.013535  d :     0.090498
      dxz     :     0.018261
      dyz     :     0.023342
      dx2y2   :     0.018970
      dxy     :     0.016390
  2 C s       :     2.913646  s :     2.913646
      pz      :     1.087226  p :     3.210295
      px      :     1.048763
      py      :     1.074306
      dz2     :     0.010564  d :     0.089860
      dxz     :     0.015734
      dyz     :     0.026529
      dx2y2   :     0.017301
      dxy     :     0.019732
  3 C s       :     2.913604  s :     2.913604
      pz      :     1.087197  p :     3.210351
      px      :     1.048846
      py      :     1.074309
      dz2     :     0.010580  d :     0.089865
      dxz     :     0.015771
      dyz     :     0.026505
      dx2y2   :     0.017215
      dxy     :     0.019794
  4 C s       :     2.911160  s :     2.911160
      pz      :     1.077179  p :     3.215330
      px      :     1.052206
      py      :     1.085944
      dz2     :     0.013686  d :     0.090502
      dxz     :     0.018197
      dyz     :     0.023166
      dx2y2   :     0.018870
      dxy     :     0.016583
  5 C s       :     2.952194  s :     2.952194
      pz      :     1.095500  p :     3.296556
      px      :     1.091477
      py      :     1.109579
      dz2     :     0.012702  d :     0.073270
      dxz     :     0.013425
      dyz     :     0.019816
      dx2y2   :     0.019563
      dxy     :     0.007764
  6 H s       :     0.888652  s :     0.888652
  7 H s       :     0.891228  s :     0.891228
  8 H s       :     0.891223  s :     0.891223
  9 H s       :     0.893002  s :     0.893002
 10 H s       :     0.893903  s :     0.893903
 11 H s       :     0.895741  s :     0.895741
 12 H s       :     0.893403  s :     0.893403
 13 H s       :     0.893443  s :     0.893443
 14 H s       :     0.895699  s :     0.895699
 15 H s       :     0.893012  s :     0.893012
 16 H s       :     0.893921  s :     0.893921
 17 H s       :     0.891146  s :     0.891146
 18 H s       :     0.891306  s :     0.891306
 19 H s       :     0.888665  s :     0.888665

SPIN
  0 C s       :     0.000000  s :     0.000000
      pz      :     0.000000  p :     0.000000
      px      :     0.000000
      py      :     0.000000
      dz2     :     0.000000  d :     0.000000
      dxz     :     0.000000
      dyz     :     0.000000
      dx2y2   :     0.000000
      dxy     :     0.000000
  1 C s       :     0.000000  s :     0.000000
      pz      :     0.000000  p :     0.000000
      px      :     0.000000
      py      :     0.000000
      dz2     :     0.000000  d :     0.000000
      dxz     :     0.000000
      dyz     :     0.000000
      dx2y2   :     0.000000
      dxy     :     0.000000
  2 C s       :     0.000000  s :     0.000000
      pz      :     0.000000  p :     0.000000
      px      :     0.000000
      py      :     0.000000
      dz2     :     0.000000  d :     0.000000
      dxz     :     0.000000
      dyz     :     0.000000
      dx2y2   :     0.000000
      dxy     :     0.000000
  3 C s       :     0.000000  s :     0.000000
      pz      :     0.000000  p :     0.000000
      px      :     0.000000
      py      :     0.000000
      dz2     :     0.000000  d :     0.000000
      dxz     :     0.000000
      dyz     :     0.000000
      dx2y2   :     0.000000
      dxy     :     0.000000
  4 C s       :     0.000000  s :     0.000000
      pz      :     0.000000  p :     0.000000
      px      :     0.000000
      py      :     0.000000
      dz2     :     0.000000  d :     0.000000
      dxz     :     0.000000
      dyz     :     0.000000
      dx2y2   :     0.000000
      dxy     :     0.000000
  5 C s       :     0.000000  s :     0.000000
      pz      :     0.000000  p :     0.000000
      px      :     0.000000
      py      :     0.000000
      dz2     :     0.000000  d :     0.000000
      dxz     :     0.000000
      dyz     :     0.000000
      dx2y2   :     0.000000
      dxy     :     0.000000
  6 H s       :     0.000000  s :     0.000000
  7 H s       :     0.000000  s :     0.000000
  8 H s       :     0.000000  s :     0.000000
  9 H s       :     0.000000  s :     0.000000
 10 H s       :     0.000000  s :     0.000000
 11 H s       :     0.000000  s :     0.000000
 12 H s       :     0.000000  s :     0.000000
 13 H s       :     0.000000  s :     0.000000
 14 H s       :     0.000000  s :     0.000000
 15 H s       :     0.000000  s :     0.000000
 16 H s       :     0.000000  s :     0.000000
 17 H s       :     0.000000  s :     0.000000
 18 H s       :     0.000000  s :     0.000000
 19 H s       :     0.000000  s :     0.000000


                      *****************************
                      * MAYER POPULATION ANALYSIS *
                      *****************************

  NA   - Mulliken gross atomic population
  ZA   - Total nuclear charge
  QA   - Mulliken gross atomic charge
  VA   - Mayer's total valence
  BVA  - Mayer's bonded valence
  FA   - Mayer's free valence

  ATOM       NA         ZA         QA         VA         BVA        FA
  0 C      6.2656     6.0000    -0.2656     4.0124     4.0124     0.0000
  1 C      6.1300     6.0000    -0.1300     4.1200     4.1200     0.0000
  2 C      6.1593     6.0000    -0.1593     4.0824     4.0824     0.0000
  3 C      6.1592     6.0000    -0.1592     4.0826     4.0826     0.0000
  4 C      6.1301     6.0000    -0.1301     4.1204     4.1204     0.0000
  5 C      6.2656     6.0000    -0.2656     4.0123     4.0123     0.0000
  6 H      0.9093     1.0000     0.0907     0.9513     0.9513     0.0000
  7 H      0.9129     1.0000     0.0871     0.9569     0.9569     0.0000
  8 H      0.9045     1.0000     0.0955     0.9578     0.9578     0.0000
  9 H      0.9316     1.0000     0.0684     0.9464     0.9464     0.0000
 10 H      0.9288     1.0000     0.0712     0.9506     0.9506     0.0000
 11 H      0.9330     1.0000     0.0670     0.9554     0.9554     0.0000
 12 H      0.9250     1.0000     0.0750     0.9537     0.9537     0.0000
 13 H      0.9250     1.0000     0.0750     0.9539     0.9539     0.0000
 14 H      0.9330     1.0000     0.0670     0.9552     0.9552     0.0000
 15 H      0.9315     1.0000     0.0685     0.9464     0.9464     0.0000
 16 H      0.9289     1.0000     0.0711     0.9505     0.9505     0.0000
 17 H      0.9043     1.0000     0.0957     0.9576     0.9576     0.0000
 18 H      0.9131     1.0000     0.0869     0.9570     0.9570     0.0000
 19 H      0.9093     1.0000     0.0907     0.9513     0.9513     0.0000

  Mayer bond orders larger than 0.100000
B(  0-C ,  1-C ) :   1.1335 B(  0-C ,  6-H ) :   0.9582 B(  0-C ,  7-H ) :   0.9611 
B(  0-C ,  8-H ) :   0.9558 B(  1-C ,  2-C ) :   1.1090 B(  1-C ,  9-H ) :   0.9355 
B(  1-C , 10-H ) :   0.9341 B(  2-C ,  3-C ) :   1.1093 B(  2-C , 11-H ) :   0.9316 
B(  2-C , 12-H ) :   0.9276 B(  3-C ,  4-C ) :   1.1092 B(  3-C , 13-H ) :   0.9277 
B(  3-C , 14-H ) :   0.9314 B(  4-C ,  5-C ) :   1.1335 B(  4-C , 15-H ) :   0.9355 
B(  4-C , 16-H ) :   0.9341 B(  5-C , 17-H ) :   0.9558 B(  5-C , 18-H ) :   0.9611 
B(  5-C , 19-H ) :   0.9583 

-------
TIMINGS
-------

Total SCF time: 0 days 0 hours 0 min 37 sec 

Total time                  ....      37.708 sec
Sum of individual times     ....      33.760 sec  ( 89.5%)

Fock matrix formation       ....      30.516 sec  ( 80.9%)
  XC integration            ....      12.444 sec  ( 40.8% of F)
    Basis function eval.    ....       0.902 sec  (  7.2% of XC)
    Density eval.           ....       0.721 sec  (  5.8% of XC)
    XC-Functional eval.     ....       0.204 sec  (  1.6% of XC)
    XC-Potential eval.      ....       0.959 sec  (  7.7% of XC)
Diagonalization             ....       0.052 sec  (  0.1%)
Density matrix formation    ....       0.504 sec  (  1.3%)
Population analysis         ....       0.759 sec  (  2.0%)
Initial guess               ....       0.008 sec  (  0.0%)
Orbital Transformation      ....       0.000 sec  (  0.0%)
Orbital Orthonormalization  ....       0.004 sec  (  0.0%)
DIIS solution               ....       0.652 sec  (  1.7%)
Grid generation             ....       1.269 sec  (  3.4%)


-------------------------------------------------------------------------------
                          DFT DISPERSION CORRECTION                            
                                                                               
                              DFTD3 V3.1  Rev 1                                
                          USING Becke-Johnson damping                          
-------------------------------------------------------------------------------
The B3LYP functional is recognized
Active option DFTDOPT                   ...         4   

molecular C6(AA) [au] = 2519.079721 


            DFT-D V3
 parameters
 s6 scaling factor         :     1.0000 
 a1 scaling factor         :     0.3981 
 s8 scaling factor         :     1.9889 
 a2 scaling factor         :     4.4211 
 ad hoc parameters k1-k3   :    16.0000     1.3333    -4.0000 

 Edisp/kcal,au: -15.682245214189  -0.024991245853 
 E6   /kcal   :  -7.868296421 
 E8   /kcal   :  -7.813948793 
 % E8         :  49.826722425 

-------------------------   ----------------
Dispersion correction           -0.024991246
-------------------------   ----------------


-------------------------   --------------------
FINAL SINGLE POINT ENERGY      -236.722362345577
-------------------------   --------------------

                                *** OPTIMIZATION RUN DONE ***

                            ***************************************
                            *     ORCA property calculations      *
                            ***************************************

                                    ---------------------
                                    Active property flags
                                    ---------------------
   (+) Dipole Moment


------------------------------------------------------------------------------
                       ORCA ELECTRIC PROPERTIES CALCULATION
------------------------------------------------------------------------------

Dipole Moment Calculation                       ... on
Quadrupole Moment Calculation                   ... off
Polarizability Calculation                      ... off
GBWName                                         ... orca8.gbw
Electron density file                           ... orca8.scfp
The origin for moment calculation is the CENTER OF MASS  = ( 0.000010, -0.000719  0.212316)

-------------
DIPOLE MOMENT
-------------
                                X             Y             Z
Electronic contribution:      0.00033      -0.00774       0.00429
Nuclear contribution   :     -0.00010       0.00779      -0.00411
                        -----------------------------------------
Total Dipole Moment    :      0.00023       0.00005       0.00017
                        -----------------------------------------
Magnitude (a.u.)       :      0.00029
Magnitude (Debye)      :      0.00074



--------------------
Rotational spectrum 
--------------------
 
Rotational constants in cm-1:     0.296183     0.047346     0.043951 
Rotational constants in MHz :  8879.328555  1419.387375  1317.607086 

 Dipole components along the rotational axes: 
x,y,z [a.u.] :     0.000232     0.000158     0.000081 
x,y,z [Debye]:     0.000590     0.000402     0.000206 

 

Timings for individual modules:

Sum of individual times         ...     9622.271 sec (= 160.371 min)
GTO integral calculation        ...      262.105 sec (=   4.368 min)   2.7 %
SCF iterations                  ...     8550.587 sec (= 142.510 min)  88.9 %
SCF Gradient evaluation         ...      682.144 sec (=  11.369 min)   7.1 %
Geometry relaxation             ...      127.436 sec (=   2.124 min)   1.3 %
                             ****ORCA TERMINATED NORMALLY****
TOTAL RUN TIME: 0 days 2 hours 46 minutes 14 seconds 916 msec
