5
Lattice="50.0 0.0 0.0 0.0 50.0 0.0 0.0 0.0 50.0" Properties=species:S:1:pos:R:3:dft_forces:R:3:tiny_gap_forces:R:3 smiles=C config_type=methane_mol dft_normal_mode_energy=0.04043763491921539 dft_normal_mode_temperature=300.0 dft_energy=-1100.4908361657822 tiny_gap_energy=-1100.4908482707413 pbc="F F F"
C       -0.00550444       0.00453635      -0.00659225       0.41876052      -0.82253975       0.60731272       0.41960699      -0.81904573       0.57983982
H       -0.67440084       0.85478730      -0.08047735      -0.37596892       0.48460780      -0.01553845      -0.38341959       0.48799275      -0.00872067
H       -0.40107998      -0.86455406      -0.55828912       0.06843695       0.10045906      -0.20132870       0.06136762       0.09343497      -0.20073112
H        0.13234676      -0.30987924       1.04179404      -0.35591527       0.09045920       0.18006440      -0.35970178       0.08513502       0.20199726
H        1.00565232       0.26692380      -0.32341633       0.24468673       0.14701369      -0.57050996       0.26214676       0.15248299      -0.57238530
5
Lattice="50.0 0.0 0.0 0.0 50.0 0.0 0.0 0.0 50.0" Properties=species:S:1:pos:R:3:dft_forces:R:3:tiny_gap_forces:R:3 smiles=C config_type=methane_mol dft_normal_mode_energy=0.09509103987584094 dft_normal_mode_temperature=300.0 dft_energy=-1100.4395332696733 tiny_gap_energy=-1100.4398465836184 pbc="F F F"
C        0.00976144       0.00302124       0.01375469      -0.94086588      -0.99997243      -1.81387795      -0.92329191      -0.97541625      -1.82058901
H       -0.68048711       0.82063367      -0.14568756      -0.48999651       0.76241829       0.31913053      -0.49672743       0.75613981       0.31632684
H       -0.43413029      -0.82648252      -0.61176404       0.47285853       0.30924677       0.45476990       0.47389775       0.31350955       0.46396144
H        0.04213456      -0.32376133       1.03996086       0.31296350      -0.02713732       0.82790140       0.30259385      -0.04361171       0.83342236
H        0.95309117       0.29494287      -0.44535356       0.64504035      -0.04455531       0.21207612       0.64352774      -0.05062139       0.20687836
5
Lattice="50.0 0.0 0.0 0.0 50.0 0.0 0.0 0.0 50.0" Properties=species:S:1:pos:R:3:dft_forces:R:3:tiny_gap_forces:R:3 smiles=C config_type=methane_mol dft_normal_mode_energy=0.21818289387590037 dft_normal_mode_temperature=300.0 dft_energy=-1100.3142378912582 tiny_gap_energy=-1100.3128095014558 pbc="F F F"
C       -0.00902854       0.00984770      -0.01828298       1.54058858      -0.58467416       0.10006026       1.59208250      -0.57005541       0.02364751
H       -0.68012000       0.88548368       0.01876772      -0.05360585      -0.17921673      -0.64139671      -0.03048077      -0.22106953      -0.63998576
H       -0.37126425      -0.94315618      -0.48321504      -0.07858745       0.96649765      -0.54500584      -0.08579134       0.99954151      -0.53146311
H        0.07910171      -0.32133635       1.00661720       0.18703746      -0.01198648       1.09931946       0.17601252      -0.01868056       1.14805932
H        1.07679256       0.26299489      -0.32324877      -1.59543275      -0.19062028      -0.01297717      -1.65182290      -0.18973601      -0.00025796
5
Lattice="50.0 0.0 0.0 0.0 50.0 0.0 0.0 0.0 50.0" Properties=species:S:1:pos:R:3:dft_forces:R:3:tiny_gap_forces:R:3 smiles=C config_type=methane_mol dft_normal_mode_energy=0.1279948597819664 dft_normal_mode_temperature=300.0 dft_energy=-1100.405312523703 tiny_gap_energy=-1100.4060823798297 pbc="F F F"
C        0.00437376       0.00816338       0.00544407       0.89677360      -1.88666126      -1.62138668       0.89122603      -1.84040978      -1.61475007
H       -0.68144919       0.80350699      -0.12043591      -0.97728951       1.48785093       0.11005006      -0.97178045       1.44934830       0.10480782
H       -0.45901289      -0.86310453      -0.56791875       0.79677207       0.74075956       0.23063957       0.79382113       0.75437541       0.24209991
H        0.06255820      -0.34000022       1.02396752       0.17476988       0.08718392       0.95749851       0.16260620       0.06917501       0.95777698
H        1.02271042       0.30365653      -0.39942602      -0.89102604      -0.42913315       0.32319855      -0.87587292      -0.43248894       0.31006536
5
Lattice="50.0 0.0 0.0 0.0 50.0 0.0 0.0 0.0 50.0" Properties=species:S:1:pos:R:3:dft_forces:R:3:tiny_gap_forces:R:3 smiles=C config_type=methane_mol dft_normal_mode_energy=0.07450767843625247 dft_normal_mode_temperature=300.0 dft_energy=-1100.4570078521353 tiny_gap_energy=-1100.4574789813062 pbc="F F F"
C        0.00156047      -0.00464185      -0.00408358      -1.00153123       0.49452929      -0.71907853      -1.01842094       0.49694209      -0.72087675
H       -0.69682124       0.88426814      -0.01959520       0.48297001      -0.60425174      -0.50954107       0.49227148      -0.61882441      -0.50435772
H       -0.39443110      -0.86806754      -0.61148450       0.14320181       0.61579276       0.54764640       0.13070124       0.60725039       0.53356571
H        0.07236223      -0.22885471       1.04664519       0.17101314      -0.70219749       0.87383106       0.16723834      -0.69340888       0.89037733
H        0.99722285       0.26929984      -0.36584638       0.20434627       0.19612719      -0.19285785       0.22820988       0.20804081      -0.19870857
5
Lattice="50.0 0.0 0.0 0.0 50.0 0.0 0.0 0.0 50.0" Properties=species:S:1:pos:R:3:dft_forces:R:3:tiny_gap_forces:R:3 smiles=C config_type=methane_mol dft_normal_mode_energy=0.1558226871578058 dft_normal_mode_temperature=300.0 dft_energy=-1100.3777748354726 tiny_gap_energy=-1100.3765699012692 pbc="F F F"
C       -0.01363523       0.00725580       0.00441408       0.99934851       0.34180322      -0.83388212       0.96343292       0.31693345      -0.78630234
H       -0.70229483       0.85574498      -0.12663592       0.18165069       0.13506213       0.29999094       0.16508397       0.14997866       0.28498378
H       -0.34605905      -0.82354093      -0.59040987      -0.55046965      -0.87024193      -0.43970568      -0.57545513      -0.88266221      -0.46656823
H        0.19171430      -0.31581177       1.00075062      -0.60071740      -0.24323048       1.48876111      -0.61577538      -0.25580009       1.54017773
H        1.01604542       0.19847838      -0.33524534      -0.02981215       0.63660705      -0.51516426       0.06271363       0.67155020      -0.57229093
5
Lattice="50.0 0.0 0.0 0.0 50.0 0.0 0.0 0.0 50.0" Properties=species:S:1:pos:R:3:dft_forces:R:3:tiny_gap_forces:R:3 smiles=C config_type=methane_mol dft_normal_mode_energy=0.13369392391454687 dft_normal_mode_temperature=300.0 dft_energy=-1100.4001975901929 tiny_gap_energy=-1100.3994800957832 pbc="F F F"
C        0.00901705       0.00006420       0.00602518      -0.39094638      -0.39236827       0.06973902      -0.35801194      -0.37709148       0.08743476
H       -0.68143841       0.80937270      -0.06756564      -0.77027091       1.24137694      -0.31839830      -0.78131813       1.26316139      -0.30442924
H       -0.38041509      -0.79519210      -0.60750054      -0.51811029      -0.93095361      -0.26109753      -0.52601761      -0.97089872      -0.28829384
H        0.00639023      -0.27064818       1.06283981       0.60938386      -0.33795236       0.29738069       0.59619652      -0.33455754       0.30019332
H        0.94494150       0.25703592      -0.45851323       1.06994371       0.41989731       0.21237612       1.06915117       0.41938635       0.20509500
5
Lattice="50.0 0.0 0.0 0.0 50.0 0.0 0.0 0.0 50.0" Properties=species:S:1:pos:R:3:dft_forces:R:3:tiny_gap_forces:R:3 smiles=C config_type=methane_mol dft_normal_mode_energy=0.1536282261569087 dft_normal_mode_temperature=300.0 dft_energy=-1100.3791348920568 tiny_gap_energy=-1100.3757912071012 pbc="F F F"
C       -0.00446008       0.00561563      -0.00864269      -1.05282546      -0.49527435      -0.28357886      -1.05750543      -0.48289292      -0.33693940
H       -0.69096188       0.87514945      -0.08498300       0.20318901      -0.23700900       0.12321473       0.18323955      -0.23091859       0.11322309
H       -0.41884948      -0.88764890      -0.53781763       0.36558042       0.55005196      -0.17396600       0.34046891       0.54381997      -0.16810890
H        0.15983761      -0.31620131       0.99778821      -0.47966219      -0.16093481       1.50941233      -0.51286777      -0.22118337       1.63100341
H        1.00004913       0.26311735      -0.27094156       0.96371823       0.34316620      -1.17508221       1.04666474       0.39117492      -1.23917820
5
Lattice="50.0 0.0 0.0 0.0 50.0 0.0 0.0 0.0 50.0" Properties=species:S:1:pos:R:3:dft_forces:R:3:tiny_gap_forces:R:3 smiles=C config_type=methane_mol dft_normal_mode_energy=0.11193202589584735 dft_normal_mode_temperature=300.0 dft_energy=-1100.4202269257135 tiny_gap_energy=-1100.4208320493944 pbc="F F F"
C       -0.00463678       0.00125236      -0.01052627       0.61684712      -0.59841935       1.43929186       0.63949466      -0.58148197       1.44435171
H       -0.71324695       0.84275665      -0.06508722       0.23292326       0.24862541      -0.08426504       0.22533955       0.25549964      -0.07997528
H       -0.43174244      -0.84701145      -0.60208873       0.44527970       0.24230796       0.37957712       0.43258274       0.21879052       0.37004122
H        0.15569324      -0.26684851       1.09643040      -0.68974307      -0.01663534      -1.18853695      -0.68779198      -0.01491997      -1.20162386
H        1.04147479       0.25751390      -0.30276634      -0.60530701       0.12412133      -0.54606699      -0.60962498       0.12211177      -0.53279379
5
Lattice="50.0 0.0 0.0 0.0 50.0 0.0 0.0 0.0 50.0" Properties=species:S:1:pos:R:3:dft_forces:R:3:tiny_gap_forces:R:3 smiles=C config_type=methane_mol dft_normal_mode_energy=0.1453500597459223 dft_normal_mode_temperature=300.0 dft_energy=-1100.3873348533543 tiny_gap_energy=-1100.3889600266214 pbc="F F F"
C       -0.00999495      -0.00492258      -0.00367074       2.20536562      -1.11036114       0.70299288       2.14600432      -1.06011947       0.70946718
H       -0.58467220       0.87266672      -0.03658898      -1.72541217       1.39348547      -0.46758608      -1.67676668       1.34375289      -0.45566615
H       -0.35217413      -0.87250616      -0.59715649      -0.34660477       0.29145575       0.09032053      -0.34256303       0.27534981       0.07921532
H        0.06603822      -0.26314742       1.09184839       0.21706129      -0.09668256      -0.79171507       0.21263634      -0.09032885      -0.79023881
H        0.98683370       0.32297978      -0.41330548      -0.35040998      -0.47789753       0.46598773      -0.33931096      -0.46865438       0.45722246
4
Lattice="50.0 0.0 0.0 0.0 50.0 0.0 0.0 0.0 50.0" Properties=species:S:1:pos:R:3:dft_forces:R:3:tiny_gap_forces:R:3 smiles=C config_type=methane_rad1 dft_normal_mode_energy=0.020723336060789674 dft_normal_mode_temperature=300.0 dft_energy=-1082.208074393103 tiny_gap_energy=-1082.208296946174 pbc="F F F"
C        0.17236099      -0.22607304       0.01902412      -0.33445683      -0.15886806       0.67378889      -0.33917616      -0.15624310       0.68460904
H       -0.52090812      -0.81786972      -0.58460364       0.14953134       0.08365018      -0.28632307       0.13756415       0.06920391      -0.29265021
H        0.01199662      -0.22641279       1.10341974       0.01749094      -0.01323324       0.03245238       0.02443984      -0.01470318       0.02478544
H        0.95043289       0.42279930      -0.36936233       0.16743455       0.08845113      -0.41991820       0.17717217       0.10174237      -0.41674427
4
Lattice="50.0 0.0 0.0 0.0 50.0 0.0 0.0 0.0 50.0" Properties=species:S:1:pos:R:3:dft_forces:R:3:tiny_gap_forces:R:3 smiles=C config_type=methane_rad1 dft_normal_mode_energy=0.053405561642061096 dft_normal_mode_temperature=300.0 dft_energy=-1082.1770539218608 tiny_gap_energy=-1082.1765746999065 pbc="F F F"
C        0.15147261      -0.19890241       0.02019102       0.13070919      -0.14435910       1.42472185       0.12741159      -0.15064899       1.46173992
H       -0.39712553      -0.89696978      -0.58030499      -0.53518637      -0.47128881      -0.63537326      -0.53712156      -0.47678883      -0.64236372
H        0.07325991      -0.34485599       1.12782942       0.13031267       0.32528474      -0.72182850       0.13206474       0.32908896      -0.74748606
H        1.01430579       0.29662248      -0.41196510       0.27416451       0.29036317      -0.06752009       0.27764523       0.29834887      -0.07189014
4
Lattice="50.0 0.0 0.0 0.0 50.0 0.0 0.0 0.0 50.0" Properties=species:S:1:pos:R:3:dft_forces:R:3:tiny_gap_forces:R:3 smiles=C config_type=methane_rad1 dft_normal_mode_energy=0.04086275215303262 dft_normal_mode_temperature=300.0 dft_energy=-1082.1870152210727 tiny_gap_energy=-1082.187578190952 pbc="F F F"
C        0.15640112      -0.21922100       0.02244292       0.11063822      -0.05405168      -0.08239588       0.11991104      -0.05890474      -0.06571352
H       -0.46202109      -0.85584334      -0.64852938       0.31126842       0.35797332       0.51595257       0.30051532       0.34917083       0.50251076
H        0.10532690      -0.22426005       1.11694198      -0.42270581      -0.30754338      -0.01060890      -0.42204716      -0.30486076      -0.01131514
H        0.98840117       0.37699291      -0.35969201       0.00079917       0.00362174      -0.42294778       0.00162081       0.01459467      -0.42548210
4
Lattice="50.0 0.0 0.0 0.0 50.0 0.0 0.0 0.0 50.0" Properties=species:S:1:pos:R:3:dft_forces:R:3:tiny_gap_forces:R:3 smiles=C config_type=methane_rad1 dft_normal_mode_energy=0.03129859749179568 dft_normal_mode_temperature=300.0 dft_energy=-1082.192534839132 tiny_gap_energy=-1082.1923717395484 pbc="F F F"
C        0.15650836      -0.20849048       0.02828358       0.40649823      -0.12791481      -1.02600639       0.41366562      -0.13891321      -1.02338103
H       -0.44271234      -0.88007951      -0.63408987       0.31108491       0.45634437       0.46585240       0.31186812       0.45866898       0.46738221
H        0.05884232      -0.30203892       1.11497670       0.04619512       0.09715612      -0.00196418       0.04462412       0.09995929      -0.00739205
H        1.01430007       0.35115186      -0.44176202      -0.76377825      -0.42558568       0.56211818      -0.77015786      -0.41971506       0.56339087
4
Lattice="50.0 0.0 0.0 0.0 50.0 0.0 0.0 0.0 50.0" Properties=species:S:1:pos:R:3:dft_forces:R:3:tiny_gap_forces:R:3 smiles=C config_type=methane_rad1 dft_normal_mode_energy=0.08581303358199596 dft_normal_mode_temperature=300.0 dft_energy=-1082.1420178205865 tiny_gap_energy=-1082.142198546431 pbc="F F F"
C        0.16586938      -0.20729166       0.03425497      -0.47487568      -0.80335430      -1.77951217      -0.47336419      -0.81425088      -1.77871283
H       -0.46302297      -0.86854998      -0.64309953       0.58061748       0.71185434       0.75498581       0.58623091       0.71756243       0.76196729
H        0.00094892      -0.32338214       1.10655335       0.33389854       0.30617832       0.16490416       0.33438070       0.30792395       0.15422761
H        0.98095535       0.34667264      -0.49548724      -0.43964033      -0.21467836       0.85962220      -0.44724742      -0.21123551       0.86251793
4
Lattice="50.0 0.0 0.0 0.0 50.0 0.0 0.0 0.0 50.0" Properties=species:S:1:pos:R:3:dft_forces:R:3:tiny_gap_forces:R:3 smiles=C config_type=methane_rad1 dft_normal_mode_energy=0.09530224171823719 dft_normal_mode_temperature=300.0 dft_energy=-1082.0964331512325 tiny_gap_energy=-1082.0967500171973 pbc="F F F"
C        0.14523693      -0.18340024       0.03046186       0.12567122      -1.33835480      -1.35825079       0.13311274      -1.33075916      -1.34988831
H       -0.37100994      -0.95960221      -0.61639192       0.22824163       0.90050765       0.55794044       0.23414003       0.89817651       0.55524725
H        0.08384289      -0.41463555       1.10254959       0.23710125       0.43636777       0.03674348       0.23607923       0.43687443       0.02939308
H        1.05191708       0.24433069      -0.47298011      -0.59101410       0.00147939       0.76356688      -0.60333200      -0.00429177       0.76524798
4
Lattice="50.0 0.0 0.0 0.0 50.0 0.0 0.0 0.0 50.0" Properties=species:S:1:pos:R:3:dft_forces:R:3:tiny_gap_forces:R:3 smiles=C config_type=methane_rad1 dft_normal_mode_energy=0.02073425129213079 dft_normal_mode_temperature=300.0 dft_energy=-1082.20267782338 tiny_gap_energy=-1082.202385771723 pbc="F F F"
C        0.14968312      -0.20655045       0.02329796       0.74615861       0.15183975      -0.27447653       0.75779198       0.14647665      -0.26662600
H       -0.42113500      -0.89392766      -0.61934344       0.04240046       0.17100423       0.12890557       0.03617726       0.16520216       0.12157765
H        0.10255591      -0.29696628       1.11378874      -0.17702806      -0.03138391       0.02088562      -0.17666671      -0.02637018       0.01666817
H        1.03034175       0.33681875      -0.39590863      -0.61153101      -0.29146006       0.12468534      -0.61730253      -0.28530863       0.12838018
4
Lattice="50.0 0.0 0.0 0.0 50.0 0.0 0.0 0.0 50.0" Properties=species:S:1:pos:R:3:dft_forces:R:3:tiny_gap_forces:R:3 smiles=C config_type=methane_rad1 dft_normal_mode_energy=0.07628759604322402 dft_normal_mode_temperature=300.0 dft_energy=-1082.1495342130365 tiny_gap_energy=-1082.149354673011 pbc="F F F"
C        0.16031897      -0.21563012       0.03643193       0.07575181      -0.13899190      -0.88779657       0.08332451      -0.14528074      -0.90981661
H       -0.40874406      -0.81169125      -0.69351548      -0.35317007      -0.17883922       0.61621174      -0.37596233      -0.19653102       0.61372077
H        0.04747503      -0.26760828       1.12992471       0.02480130       0.01050538      -0.32293976       0.02427575       0.01148116      -0.30601376
H        0.94628953       0.33339815      -0.49438704       0.25261696       0.30732574       0.59452459       0.26836207       0.33033060       0.60210960
4
Lattice="50.0 0.0 0.0 0.0 50.0 0.0 0.0 0.0 50.0" Properties=species:S:1:pos:R:3:dft_forces:R:3:tiny_gap_forces:R:3 smiles=C config_type=methane_rad1 dft_normal_mode_energy=0.18097296300774576 dft_normal_mode_temperature=300.0 dft_energy=-1082.0519944342163 tiny_gap_energy=-1082.0507592338388 pbc="F F F"
C        0.17259094      -0.24713469       0.01658276       1.60333800       1.45679456       2.60971153       1.60032337       1.46229643       2.62327834
H       -0.50348044      -0.71837501      -0.60077838      -1.77237570      -1.28539698      -1.57730533      -1.73287784      -1.25138561      -1.53900622
H        0.04475075      -0.11811469       1.10303996      -0.44317911      -0.54586500      -0.10578622      -0.46305149      -0.57278650      -0.12848328
H        0.89750618       0.46595643      -0.32372332       0.61221681       0.37446743      -0.92661998       0.59560596       0.36187568      -0.95578885
4
Lattice="50.0 0.0 0.0 0.0 50.0 0.0 0.0 0.0 50.0" Properties=species:S:1:pos:R:3:dft_forces:R:3:tiny_gap_forces:R:3 smiles=C config_type=methane_rad1 dft_normal_mode_energy=0.09223326185719456 dft_normal_mode_temperature=300.0 dft_energy=-1082.1350284406278 tiny_gap_energy=-1082.1341439476337 pbc="F F F"
C        0.15917566      -0.22008413       0.03642513       1.54108372       1.05407976      -2.01981607       1.55883155       1.06282782      -2.04255714
H       -0.41679423      -0.80106668      -0.66002468      -0.72278804      -0.60481087      -0.14343272      -0.73352840      -0.61592922      -0.14868557
H        0.04217133      -0.26187508       1.09160730      -0.11195356      -0.01966406       1.16499569      -0.11673835      -0.02353543       1.19126923
H        0.97326478       0.37010992      -0.48947849      -0.70634213      -0.42960484       0.99825310      -0.70856480      -0.42336317       0.99997348
4
Lattice="50.0 0.0 0.0 0.0 50.0 0.0 0.0 0.0 50.0" Properties=species:S:1:pos:R:3:dft_forces:R:3:tiny_gap_forces:R:3 smiles=C config_type=methane_rad2 dft_normal_mode_energy=0.05598038584613065 dft_normal_mode_temperature=300.0 dft_energy=-1082.1709416724404 tiny_gap_energy=-1082.1703970819965 pbc="F F F"
C        0.08441468       0.21614396       0.14501060       1.88262799      -0.47204849      -0.64672880       1.91549148      -0.47931469      -0.64940506
H       -0.74024031       0.83622860      -0.12968870      -0.73994893       0.55148148      -0.25371320      -0.76010550       0.57058642      -0.25976676
H        0.10012568      -0.39768611       1.02482048      -0.37424344      -0.36675041       0.79566102      -0.37981947      -0.37871463       0.80202816
H        1.03604784       0.17070825      -0.44055948      -0.76843561       0.28731743       0.10478098      -0.77556651       0.28744291       0.10714365
4
Lattice="50.0 0.0 0.0 0.0 50.0 0.0 0.0 0.0 50.0" Properties=species:S:1:pos:R:3:dft_forces:R:3:tiny_gap_forces:R:3 smiles=C config_type=methane_rad2 dft_normal_mode_energy=0.10109412715739637 dft_normal_mode_temperature=300.0 dft_energy=-1082.120501963919 tiny_gap_energy=-1082.1199159465114 pbc="F F F"
C        0.09431516       0.22017568       0.14107475       1.03775678      -2.06655666       2.19357570       1.00259972      -2.06038486       2.21163624
H       -0.72893726       0.79263249      -0.11035415      -1.96690806       1.48383951      -0.75804230      -1.93226488       1.46689899      -0.74895126
H        0.02773619      -0.41731913       1.06860589       0.14485683       0.55990013      -0.84468536       0.13959515       0.56727851      -0.86251977
H        0.97915127       0.18590230      -0.45678659       0.78429445       0.02281701      -0.59084804       0.79007001       0.02620736      -0.60016521
4
Lattice="50.0 0.0 0.0 0.0 50.0 0.0 0.0 0.0 50.0" Properties=species:S:1:pos:R:3:dft_forces:R:3:tiny_gap_forces:R:3 smiles=C config_type=methane_rad2 dft_normal_mode_energy=0.056798856171645644 dft_normal_mode_temperature=300.0 dft_energy=-1082.1712704391819 tiny_gap_energy=-1082.1708446929565 pbc="F F F"
C        0.08874072       0.20610652       0.14209025       1.50592076       0.19160293      -1.23866778       1.53652281       0.20083909      -1.25189295
H       -0.73729222       0.84785471      -0.09250819      -0.59501733       0.56063599      -0.37652619      -0.61195121       0.57172584      -0.37797544
H        0.04148852      -0.34565257       1.04924303       0.08307542      -0.73771682       1.03066123       0.07418189      -0.75413594       1.04477516
H        1.04019711       0.22664719      -0.46735525      -0.99397885      -0.01452210       0.58453274      -0.99875349      -0.01842899       0.58509323
4
Lattice="50.0 0.0 0.0 0.0 50.0 0.0 0.0 0.0 50.0" Properties=species:S:1:pos:R:3:dft_forces:R:3:tiny_gap_forces:R:3 smiles=C config_type=methane_rad2 dft_normal_mode_energy=0.06626165384699857 dft_normal_mode_temperature=300.0 dft_energy=-1082.16347561817 tiny_gap_energy=-1082.1630628940636 pbc="F F F"
C        0.09516296       0.20222500       0.14291465      -0.82597289       0.87657984      -0.30066190      -0.81793696       0.88294483      -0.29714532
H       -0.77665991       0.89414665      -0.12956313       1.13767695      -0.94112365       0.34128855       1.15514082      -0.95070304       0.34581554
H        0.02760842      -0.37033278       1.09449613       0.22035128       0.24137969      -0.57477797       0.21875758       0.24720522      -0.59543918
H        1.01691878       0.25128790      -0.48537844      -0.53205534      -0.17683588       0.53415133      -0.55596144      -0.17944700       0.54676896
4
Lattice="50.0 0.0 0.0 0.0 50.0 0.0 0.0 0.0 50.0" Properties=species:S:1:pos:R:3:dft_forces:R:3:tiny_gap_forces:R:3 smiles=C config_type=methane_rad2 dft_normal_mode_energy=0.011902047139622767 dft_normal_mode_temperature=300.0 dft_energy=-1082.2153554612692 tiny_gap_energy=-1082.2156377804465 pbc="F F F"
C        0.09776901       0.22323551       0.14899404       0.28803344      -0.42297356       0.14516164       0.29463409      -0.42869736       0.14518732
H       -0.78636839       0.80003282      -0.13811932       0.08662739       0.09581034      -0.15057665       0.08166480       0.10480178      -0.14936538
H        0.02063298      -0.43165331       1.03447640       0.08591609       0.18369419      -0.20898355       0.08209881       0.17965584      -0.20978742
H        1.00251758       0.15638277      -0.48926537      -0.46057692       0.14346903       0.21439857      -0.45839771       0.14423974       0.21396548
4
Lattice="50.0 0.0 0.0 0.0 50.0 0.0 0.0 0.0 50.0" Properties=species:S:1:pos:R:3:dft_forces:R:3:tiny_gap_forces:R:3 smiles=C config_type=methane_rad2 dft_normal_mode_energy=0.06540759232704002 dft_normal_mode_temperature=300.0 dft_energy=-1082.1661453733489 tiny_gap_energy=-1082.1661307731015 pbc="F F F"
C        0.09457062       0.20847778       0.14611766      -0.67973121       0.18208739       0.35019160      -0.67019024       0.19188086       0.34018496
H       -0.76330553       0.87895137      -0.16345479       0.76443376      -0.75908988       0.47330850       0.79180491      -0.77029887       0.47566368
H        0.04209730      -0.41241798       1.09692163       0.08562765       0.74418065      -1.15425455       0.08553331       0.74402469      -1.16558429
H        0.99612509       0.23406752      -0.49208727      -0.17033020      -0.16717817       0.33075445      -0.20714798      -0.16560667       0.34973565
4
Lattice="50.0 0.0 0.0 0.0 50.0 0.0 0.0 0.0 50.0" Properties=species:S:1:pos:R:3:dft_forces:R:3:tiny_gap_forces:R:3 smiles=C config_type=methane_rad2 dft_normal_mode_energy=0.11644381831100706 dft_normal_mode_temperature=300.0 dft_energy=-1082.0547683800783 tiny_gap_energy=-1082.0547508769355 pbc="F F F"
C        0.08622412       0.18206109       0.11559653      -0.37360116       0.85991986       1.21470093      -0.36830681       0.85815927       1.19346587
H       -0.75182342       0.94242723       0.02962014       0.97887867      -0.63025259      -0.60702584       0.97516349      -0.61900328      -0.61000237
H        0.03677705      -0.24254491       1.15839836       0.43695774      -0.11995397      -0.94279910       0.43924929      -0.12976979      -0.92129033
H        1.08947867       0.31545550      -0.38290312      -1.04223524      -0.10971330       0.33512400      -1.04610597      -0.10938619       0.33782683
4
Lattice="50.0 0.0 0.0 0.0 50.0 0.0 0.0 0.0 50.0" Properties=species:S:1:pos:R:3:dft_forces:R:3:tiny_gap_forces:R:3 smiles=C config_type=methane_rad2 dft_normal_mode_energy=0.022731203392380155 dft_normal_mode_temperature=300.0 dft_energy=-1082.204523405596 tiny_gap_energy=-1082.204830642929 pbc="F F F"
C        0.09589230       0.20824222       0.13910907      -0.63092734       0.43139683      -0.04198021      -0.64005878       0.44639011      -0.03918816
H       -0.78067529       0.85015564      -0.08510160       0.53115436      -0.16810723      -0.21701209       0.52921863      -0.16565718      -0.21580364
H        0.02161353      -0.35831735       1.06084540       0.20088631      -0.32999194       0.30543117       0.19787798      -0.34219215       0.31032176
H        1.01823350       0.21156466      -0.45084333      -0.10111332       0.06670234      -0.04643887      -0.08703784       0.06145922      -0.05532997
4
Lattice="50.0 0.0 0.0 0.0 50.0 0.0 0.0 0.0 50.0" Properties=species:S:1:pos:R:3:dft_forces:R:3:tiny_gap_forces:R:3 smiles=C config_type=methane_rad2 dft_normal_mode_energy=0.2187817294609766 dft_normal_mode_temperature=300.0 dft_energy=-1082.0230138527995 tiny_gap_energy=-1082.0224141936387 pbc="F F F"
C        0.08481055       0.21481928       0.13446971       0.79960379      -2.60982508       3.19792850       0.78499251      -2.59511648       3.19807273
H       -0.70184035       0.85064209      -0.12945146      -1.60048433       1.11933164      -0.34876213      -1.60858532       1.14097384      -0.36852538
H        0.10253189      -0.43378143       1.12353261      -0.35750147       1.41439920      -1.95721362      -0.35307313       1.37510840      -1.91775209
H        0.99053536       0.20816973      -0.41390011       1.15838201       0.07609424      -0.89195275       1.17666594       0.07903425      -0.91179526
4
Lattice="50.0 0.0 0.0 0.0 50.0 0.0 0.0 0.0 50.0" Properties=species:S:1:pos:R:3:dft_forces:R:3:tiny_gap_forces:R:3 smiles=C config_type=methane_rad2 dft_normal_mode_energy=0.05409491778464786 dft_normal_mode_temperature=300.0 dft_energy=-1082.1778640501843 tiny_gap_energy=-1082.177789456473 pbc="F F F"
C        0.09394932       0.22276493       0.16195378       1.01355074      -0.09769761      -0.80057024       1.01904296      -0.09072602      -0.81560607
H       -0.72353665       0.80504970      -0.22742605      -0.83236237       0.26885402       0.21363692      -0.83571184       0.28069749       0.20914215
H        0.05226806      -0.45702509       1.00889673      -0.21563361      -0.03640294       0.23864574      -0.21314749      -0.05529394       0.25082059
H        0.95355950       0.18235176      -0.52881500       0.03444524      -0.13475347       0.34828758       0.02981638      -0.13467753       0.35564333
4
Lattice="50.0 0.0 0.0 0.0 50.0 0.0 0.0 0.0 50.0" Properties=species:S:1:pos:R:3:dft_forces:R:3:tiny_gap_forces:R:3 smiles=C config_type=methane_rad3 dft_normal_mode_energy=0.055899309751702174 dft_normal_mode_temperature=300.0 dft_energy=-1082.1735894074038 tiny_gap_energy=-1082.1739475477066 pbc="F F F"
C       -0.02440828       0.08739037      -0.27655614       1.10652433      -0.20690118       0.02275677       1.13362870      -0.19850743       0.02716215