5
Lattice="50.0 0.0 0.0 0.0 50.0 0.0 0.0 0.0 50.0" Properties=species:S:1:pos:R:3:dft_forces:R:3:tiny_gap_forces:R:3 smiles=C config_type=methane_mol dft_normal_mode_energy=0.22048103625803253 dft_normal_mode_temperature=300.0 dft_energy=-1100.3124962032573 tiny_gap_energy=-1100.3138039079176 pbc="F F F"
C       -0.00288992       0.00673045       0.01609493      -1.37576968      -1.08823968      -0.73049414      -1.31426628      -1.05695618      -0.74251147
H       -0.62937464       0.91258898      -0.15163222      -0.33325232      -0.61128996       0.43183470      -0.33307978      -0.60533311       0.44688299
H       -0.30951985      -0.87622563      -0.61708821      -0.55220630       0.66688746       0.43731525      -0.56648899       0.62576802       0.42940182
H        0.07177995      -0.37169216       1.05611860       0.20836592       0.59006313      -0.16465892       0.17492372       0.58085861      -0.14637991
H        0.89847992       0.25646142      -0.47813079       2.05286238       0.44257905       0.02600310       2.03891132       0.45566266       0.01260657
5
Lattice="50.0 0.0 0.0 0.0 50.0 0.0 0.0 0.0 50.0" Properties=species:S:1:pos:R:3:dft_forces:R:3:tiny_gap_forces:R:3 smiles=C config_type=methane_mol dft_normal_mode_energy=0.1614892847184422 dft_normal_mode_temperature=300.0 dft_energy=-1100.3713171556838 tiny_gap_energy=-1100.3714354813853 pbc="F F F"
C        0.00578696      -0.00037052      -0.00372074       0.44798520       0.60754443       0.72309826       0.43783232       0.61548639       0.71525624
H       -0.64786658       0.88106206      -0.04358991      -0.46661799      -0.06382558      -0.33851544      -0.44830348      -0.08309022      -0.32509549
H       -0.37745680      -0.86925254      -0.51170131      -0.52349193      -0.39316684      -0.99600446      -0.52352734      -0.39502952      -0.97864992
H       -0.02937903      -0.33627097       1.06154780       0.91472678       0.42670726      -0.22487479       0.90783124       0.43506014      -0.25626054
H        0.98266926       0.33020883      -0.46086299      -0.37260206      -0.57725927       0.83629644      -0.37383274      -0.57242678       0.84474972
5
Lattice="50.0 0.0 0.0 0.0 50.0 0.0 0.0 0.0 50.0" Properties=species:S:1:pos:R:3:dft_forces:R:3:tiny_gap_forces:R:3 smiles=C config_type=methane_mol dft_normal_mode_energy=0.08048219527350114 dft_normal_mode_temperature=300.0 dft_energy=-1100.4504702123415 tiny_gap_energy=-1100.4500943088335 pbc="F F F"
C        0.00437471       0.00030727       0.00004827       0.43938793       0.72327761       0.76231563       0.44221542       0.70873878       0.76279623
H       -0.73668638       0.80485520      -0.09195331       0.28885133       0.62690628       0.03576164       0.27953180       0.64149984       0.04188839
H       -0.42093262      -0.77488061      -0.59332718      -0.28952937      -1.44554747      -0.56942710      -0.29323375      -1.45462688      -0.57767538
H        0.08554601      -0.27800844       1.07092798      -0.06661510      -0.14854235      -0.24839340      -0.07027086      -0.14483515      -0.24290909
H        1.01686900       0.24570446      -0.38516632      -0.37209480       0.24390594       0.01974323      -0.35824262       0.24922341       0.01589985
5
Lattice="50.0 0.0 0.0 0.0 50.0 0.0 0.0 0.0 50.0" Properties=species:S:1:pos:R:3:dft_forces:R:3:tiny_gap_forces:R:3 smiles=C config_type=methane_mol dft_normal_mode_energy=0.14089900810532002 dft_normal_mode_temperature=300.0 dft_energy=-1100.392566303325 tiny_gap_energy=-1100.3940041145693 pbc="F F F"
C       -0.00098089       0.01234526      -0.01788130      -0.16378094      -2.26882574       1.60800819      -0.17381993      -2.29697821       1.53115886
H       -0.67821785       0.85284061      -0.03508944      -0.50064783       0.57106341      -0.25173322      -0.50581254       0.56808286      -0.22796591
H       -0.42143550      -0.92393226      -0.49669817       0.43008662       1.06092410      -0.32646237       0.44219351       1.08897541      -0.29696163
H        0.09316939      -0.34817742       1.04687516      -0.10630848       0.55390312      -0.35786191      -0.10771769       0.56164238      -0.35549586
H        1.01509919       0.27349586      -0.30095512       0.34065063       0.08293510      -0.67195069       0.34515664       0.07827755      -0.65073545
5
Lattice="50.0 0.0 0.0 0.0 50.0 0.0 0.0 0.0 50.0" Properties=species:S:1:pos:R:3:dft_forces:R:3:tiny_gap_forces:R:3 smiles=C config_type=methane_mol dft_normal_mode_energy=0.12457615461274385 dft_normal_mode_temperature=300.0 dft_energy=-1100.4109345887123 tiny_gap_energy=-1100.4100540098273 pbc="F F F"
C       -0.00768724      -0.00192530       0.00835536       2.26693273      -0.17919771      -1.90303604       2.26158928      -0.15030361      -1.91539655
H       -0.62406417       0.85727604      -0.11003524      -1.14128405       1.00417697       0.02254150      -1.12034303       0.98464253       0.02070145
H       -0.38430313      -0.84957796      -0.58689505      -0.08938771       0.04153542      -0.08747596      -0.09454904       0.03523002      -0.08940246
H        0.07828876      -0.30701365       1.02954573       0.19614513      -0.16907640       1.18165054       0.19839869      -0.17475711       1.18945476
H        1.01860447       0.32359103      -0.43112011      -1.23240609      -0.69743829       0.78631996      -1.24509590      -0.69481183       0.79464281
5
Lattice="50.0 0.0 0.0 0.0 50.0 0.0 0.0 0.0 50.0" Properties=species:S:1:pos:R:3:dft_forces:R:3:tiny_gap_forces:R:3 smiles=C config_type=methane_mol dft_normal_mode_energy=0.10387279077141816 dft_normal_mode_temperature=300.0 dft_energy=-1100.4288728908796 tiny_gap_energy=-1100.430364394611 pbc="F F F"
C       -0.00117367       0.00926464       0.00079938       0.12037769      -0.47313141      -1.00162789       0.13911984      -0.46775075      -1.00592987
H       -0.70465468       0.88912998      -0.10504390       0.53686346      -0.75834983       0.23130775       0.52767013      -0.75601748       0.22912531
H       -0.40545457      -0.90541479      -0.54015464       0.33273063       1.02639971      -0.03976710       0.33110296       1.02897324      -0.03171024
H        0.08604397      -0.37170183       1.02362319       0.03309365       0.47491263       0.52812986       0.02250024       0.46366590       0.53294404
H        1.03497696       0.27892047      -0.38689187      -1.02306543      -0.26983110       0.28195738      -1.02039316      -0.26887091       0.27557076
5
Lattice="50.0 0.0 0.0 0.0 50.0 0.0 0.0 0.0 50.0" Properties=species:S:1:pos:R:3:dft_forces:R:3:tiny_gap_forces:R:3 smiles=C config_type=methane_mol dft_normal_mode_energy=0.1017706896698632 dft_normal_mode_temperature=300.0 dft_energy=-1100.4213028483518 tiny_gap_energy=-1100.420929794421 pbc="F F F"
C        0.00373279       0.00197805       0.00109446      -1.49970676      -0.37135836       1.57023220      -1.41733496      -0.35930864       1.55052803
H       -0.67171814       0.84846579      -0.12919714      -0.34293198       0.37142329       0.29717014      -0.35717914       0.38219010       0.29989748
H       -0.39870977      -0.81434239      -0.56676281      -0.31937334      -0.90736680      -0.65243883      -0.34334596      -0.92774119      -0.65609655
H        0.08957594      -0.33392018       1.06566973      -0.06719292       0.41398417      -0.43603598      -0.07643907       0.41248527      -0.43724094
H        0.93329969       0.27755926      -0.38169599       2.22920500       0.49331771      -0.77892752       2.19429914       0.49237446      -0.75708802
5
Lattice="50.0 0.0 0.0 0.0 50.0 0.0 0.0 0.0 50.0" Properties=species:S:1:pos:R:3:dft_forces:R:3:tiny_gap_forces:R:3 smiles=C config_type=methane_mol dft_normal_mode_energy=0.1318179439306085 dft_normal_mode_temperature=300.0 dft_energy=-1100.4031201980881 tiny_gap_energy=-1100.4040111662066 pbc="F F F"
C       -0.00218826       0.00226893      -0.01346459       0.05383628       0.36741318       1.78774894       0.06033827       0.38820417       1.77665587
H       -0.71831642       0.88505646      -0.08828656       0.78166733      -0.78984703       0.18377155       0.77442913      -0.78803615       0.19401193
H       -0.43860800      -0.86681936      -0.52844725       0.31166803       0.03858698      -0.43624353       0.31908059       0.03028920      -0.43372482
H        0.14119352      -0.33324780       1.07547630      -0.56281891       0.56595374      -0.97175437      -0.56220177       0.56892218      -0.98370457
H        1.03873317       0.28930603      -0.29724131      -0.58435274      -0.18210687      -0.56352259      -0.59164622      -0.19937941      -0.55323840
5
Lattice="50.0 0.0 0.0 0.0 50.0 0.0 0.0 0.0 50.0" Properties=species:S:1:pos:R:3:dft_forces:R:3:tiny_gap_forces:R:3 smiles=C config_type=methane_mol dft_normal_mode_energy=0.12161645402476076 dft_normal_mode_temperature=300.0 dft_energy=-1100.398091542903 tiny_gap_energy=-1100.3990431827199 pbc="F F F"
C       -0.00935496      -0.00238174      -0.00348232       2.24081984       1.64218309       1.46452233       2.21457503       1.56507567       1.40911637
H       -0.66435400       0.85483631      -0.12005490      -0.41750814       0.49945085       0.25971953      -0.41009541       0.49771497       0.26045827
H       -0.39088150      -0.80071812      -0.54109379      -0.80339112      -2.10868198      -1.55027117      -0.76847200      -2.03192000      -1.49377629
H        0.14504492      -0.31741361       1.04637155      -0.44857675       0.21315072       0.04544861      -0.44919432       0.21448848       0.03457986
H        1.01859046       0.29300813      -0.34267085      -0.57134383      -0.24610268      -0.21941931      -0.58681330      -0.24535912      -0.21037822
5
Lattice="50.0 0.0 0.0 0.0 50.0 0.0 0.0 0.0 50.0" Properties=species:S:1:pos:R:3:dft_forces:R:3:tiny_gap_forces:R:3 smiles=C config_type=methane_mol dft_normal_mode_energy=0.04726864857605118 dft_normal_mode_temperature=300.0 dft_energy=-1100.4853762462385 tiny_gap_energy=-1100.4856813862273 pbc="F F F"
C        0.00186283       0.00251492      -0.00257258       1.05991706      -0.54153586       0.61913394       1.07254829      -0.53490061       0.62618303
H       -0.67962061       0.83499477      -0.07565168      -0.51468015       0.75756585      -0.11737458      -0.52633032       0.75741587      -0.11256784
H       -0.41361586      -0.84387152      -0.55996791       0.01443077      -0.18462854      -0.31689663       0.00057152      -0.19668173      -0.32297729
H        0.04996968      -0.31615455       1.07592730       0.24642348       0.29364526      -0.61626382       0.24065243       0.29549565      -0.62004499
H        1.01799372       0.29639659      -0.40859605      -0.80609116      -0.32504671       0.43140110      -0.78744193      -0.32132918       0.42940709
5
Lattice="50.0 0.0 0.0 0.0 50.0 0.0 0.0 0.0 50.0" Properties=species:S:1:pos:R:3:dft_forces:R:3:tiny_gap_forces:R:3 smiles=C config_type=methane_mol dft_normal_mode_energy=0.0621781959795092 dft_normal_mode_temperature=300.0 dft_energy=-1100.4671192187666 tiny_gap_energy=-1100.46638616932 pbc="F F F"
C        0.00108811       0.00035020       0.00679794       0.27545286      -1.19344918      -1.31586891       0.26776628      -1.19028635      -1.32906088
H       -0.65222374       0.83349599      -0.08449930      -1.01122782       1.18537649      -0.17524225      -1.01091429       1.17748500      -0.17572715
H       -0.39304212      -0.84300183      -0.61988032       0.09164624       0.33805995       0.48135423       0.09401815       0.34842251       0.48773156
H        0.05970637      -0.27530108       1.04576934       0.26701808      -0.37397301       0.82898920       0.26261787      -0.38089498       0.84278449
H        0.96951967       0.28196832      -0.42133649       0.37711064       0.04398575       0.18076773       0.38651199       0.04527382       0.17427198
5
Lattice="50.0 0.0 0.0 0.0 50.0 0.0 0.0 0.0 50.0" Properties=species:S:1:pos:R:3:dft_forces:R:3:tiny_gap_forces:R:3 smiles=C config_type=methane_mol dft_normal_mode_energy=0.16984236680832943 dft_normal_mode_temperature=300.0 dft_energy=-1100.363782859883 tiny_gap_energy=-1100.3647075733197 pbc="F F F"
C       -0.00668480      -0.00443387       0.00854200      -0.37876295       0.31547610      -1.36920016      -0.42104247       0.31384419      -1.34236984
H       -0.63242065       0.87526646      -0.18626420      -0.49852571       0.12675523       0.76781533      -0.49356028       0.11039674       0.74409665
H       -0.42293134      -0.82696750      -0.59109587       0.27186969      -0.19750354      -0.11276927       0.25909158      -0.18472740      -0.09478305
H        0.17523405      -0.31948976       1.00921912      -0.49286209      -0.11405987       1.52102070      -0.48547174      -0.13420011       1.50455642
H        0.95670265       0.32535874      -0.33258823       1.09828106      -0.13066792      -0.80686659       1.14098292      -0.10531342      -0.81150018
5
Lattice="50.0 0.0 0.0 0.0 50.0 0.0 0.0 0.0 50.0" Properties=species:S:1:pos:R:3:dft_forces:R:3:tiny_gap_forces:R:3 smiles=C config_type=methane_mol dft_normal_mode_energy=0.09522524639780898 dft_normal_mode_temperature=300.0 dft_energy=-1100.4364305809347 tiny_gap_energy=-1100.4360651840664 pbc="F F F"
C       -0.00401474       0.00781710      -0.00471289       1.08823700      -0.89293175      -0.41228179       1.11660900      -0.90052074      -0.45525437
H       -0.70436546       0.84120388      -0.00385507      -0.13218741       0.50528527      -0.65750804      -0.13057564       0.50256612      -0.65370438
H       -0.35244066      -0.87520867      -0.58885336      -0.29211838       0.39592050       0.22567708      -0.29520724       0.40543856       0.23071722
H        0.06240781      -0.27061280       1.04692627       0.26641118      -0.39312028       0.46039883       0.25800987      -0.39576578       0.48908513
H        1.03916355       0.21280127      -0.39700038      -0.93034239       0.38484625       0.38371392      -0.94883600       0.38828184       0.38915640
5
Lattice="50.0 0.0 0.0 0.0 50.0 0.0 0.0 0.0 50.0" Properties=species:S:1:pos:R:3:dft_forces:R:3:tiny_gap_forces:R:3 smiles=C config_type=methane_mol dft_normal_mode_energy=0.0833579091427496 dft_normal_mode_temperature=300.0 dft_energy=-1100.4496952590885 tiny_gap_energy=-1100.4505330252314 pbc="F F F"
C        0.00625553      -0.00387299       0.00357912      -0.89806280       0.78393464       0.98463529      -0.91687552       0.78185613       1.00413258
H       -0.72685347       0.84233782      -0.11329340       0.66143316      -0.18856363       0.23578161       0.67119360      -0.19962724       0.22714109
H       -0.41366612      -0.77888545      -0.62715134      -0.13805573      -0.92904700      -0.02402401      -0.14458363      -0.92396601      -0.03511103
H        0.08471542      -0.27761994       1.10640714      -0.09125444       0.04076702      -1.16587903      -0.09462237       0.03560313      -1.14542632
H        0.97818951       0.26165091      -0.40755650       0.46593982       0.29290898      -0.03051386       0.48488791       0.30613399      -0.05073633
5
Lattice="50.0 0.0 0.0 0.0 50.0 0.0 0.0 0.0 50.0" Properties=species:S:1:pos:R:3:dft_forces:R:3:tiny_gap_forces:R:3 smiles=C config_type=methane_mol dft_normal_mode_energy=0.07876884558920177 dft_normal_mode_temperature=300.0 dft_energy=-1100.4538339516073 tiny_gap_energy=-1100.4538039967513 pbc="F F F"
C        0.00154073       0.00147557       0.00408835       0.54422407      -0.12578902      -0.34885451       0.55603099      -0.11828403      -0.35581894
H       -0.73345726       0.80446306      -0.08529806       0.17741158       0.73801994      -0.06874909       0.18168992       0.72627159      -0.06828689
H       -0.40754711      -0.79093991      -0.63655874       0.00412890      -0.59223202       0.30505068      -0.00050220      -0.58688901       0.30480605
H        0.09616638      -0.25705966       1.07151622      -0.10719412      -0.37612364      -0.07831532      -0.11514691      -0.37840409      -0.06844883
H        1.02340394       0.22728641      -0.39731961      -0.61857044       0.35612475       0.19086823      -0.62207179       0.35730555       0.18774862
5
Lattice="50.0 0.0 0.0 0.0 50.0 0.0 0.0 0.0 50.0" Properties=species:S:1:pos:R:3:dft_forces:R:3:tiny_gap_forces:R:3 smiles=C config_type=methane_mol dft_normal_mode_energy=0.04064774011202524 dft_normal_mode_temperature=300.0 dft_energy=-1100.490629134455 tiny_gap_energy=-1100.490585610218 pbc="F F F"
C       -0.00105828      -0.00339004      -0.00597011      -0.02573600       0.49602474       0.89610052      -0.02578547       0.50634992       0.88969074
H       -0.69870836       0.84732649      -0.07441478       0.12742301       0.19307450      -0.04515741       0.12899733       0.18491861      -0.04056702
H       -0.42016120      -0.81829431      -0.58867248       0.00775280      -0.59768161      -0.21055758      -0.00324036      -0.60578248      -0.21504191
H        0.12412379      -0.26064097       1.06354158      -0.33598834      -0.25849748      -0.08749204      -0.33980016      -0.25816670      -0.08110750
H        1.00428314       0.27333773      -0.32825703       0.22654853       0.16707985      -0.55289350       0.23982867       0.17268066      -0.55297431
5
Lattice="50.0 0.0 0.0 0.0 50.0 0.0 0.0 0.0 50.0" Properties=species:S:1:pos:R:3:dft_forces:R:3:tiny_gap_forces:R:3 smiles=C config_type=methane_mol dft_normal_mode_energy=0.04893449164138899 dft_normal_mode_temperature=300.0 dft_energy=-1100.4821855020261 tiny_gap_energy=-1100.4821367277666 pbc="F F F"
C       -0.00375040       0.00850732      -0.00486134       0.68347809      -1.94347431       0.47252388       0.68588193      -1.95841048       0.45203720
H       -0.67735670       0.84108745      -0.04554614      -0.63288999       0.88496708      -0.34258926      -0.63520715       0.88068521      -0.33459617
H       -0.37741121      -0.88238028      -0.58722148       0.03403710       0.70405475       0.34409952       0.02991179       0.71251466       0.34841786
H        0.08772788      -0.29974240       1.06740513      -0.01181042       0.07613933      -0.42960696      -0.01750241       0.08149152      -0.42293222
H        1.00865630       0.24099550      -0.37565227      -0.07281478       0.27831315      -0.04442719      -0.06308417       0.28371909      -0.04292667
5
Lattice="50.0 0.0 0.0 0.0 50.0 0.0 0.0 0.0 50.0" Properties=species:S:1:pos:R:3:dft_forces:R:3:tiny_gap_forces:R:3 smiles=C config_type=methane_mol dft_normal_mode_energy=0.0813690958782492 dft_normal_mode_temperature=300.0 dft_energy=-1100.4489938868383 tiny_gap_energy=-1100.4487077356719 pbc="F F F"
C       -0.00386374      -0.00479833      -0.00874027       1.26842488       0.35652991       1.46859919       1.24821427       0.37377332       1.45442477
H       -0.65326385       0.84595927      -0.01659047      -0.81914454       0.94441486      -0.55261251      -0.81291629       0.93460235      -0.54943335
H       -0.37126291      -0.82761070      -0.58113773      -0.60505758      -0.94917996      -0.56070119      -0.59863091      -0.94724977      -0.55646490
H        0.07021637      -0.23863665       1.07715370       0.15523645      -0.41224632      -0.33453534       0.15399064      -0.41858828      -0.32416083
H        0.99727666       0.27879884      -0.37421884       0.00054079       0.06048150      -0.02075014       0.00934229       0.05746238      -0.02436569
5
Lattice="50.0 0.0 0.0 0.0 50.0 0.0 0.0 0.0 50.0" Properties=species:S:1:pos:R:3:dft_forces:R:3:tiny_gap_forces:R:3 smiles=C config_type=methane_mol dft_normal_mode_energy=0.20125025960674428 dft_normal_mode_temperature=300.0 dft_energy=-1100.3336212632507 tiny_gap_energy=-1100.3349911805324 pbc="F F F"
C        0.00363824       0.00656962      -0.00040304       0.07708887      -1.22801676      -0.83629373       0.08229395      -1.25537268      -0.86654742
H       -0.71023179       0.84909323       0.01569902       0.13841276       0.13312028      -0.87216963       0.13023040       0.14387203      -0.85638277
H       -0.35921685      -0.89546622      -0.62780711      -0.02625102       1.23196369       0.97187870      -0.02482161       1.23022686       0.95279313
H       -0.00022708      -0.25428423       1.07570927       0.71254089      -0.43070829      -0.16987846       0.70429592      -0.41511740      -0.12961424
H        1.02324745       0.22370685      -0.45774027      -0.90179150       0.29364108       0.90646312      -0.89199867       0.29639119       0.89975130
5
Lattice="50.0 0.0 0.0 0.0 50.0 0.0 0.0 0.0 50.0" Properties=species:S:1:pos:R:3:dft_forces:R:3:tiny_gap_forces:R:3 smiles=C config_type=methane_mol dft_normal_mode_energy=0.04973293093923277 dft_normal_mode_temperature=300.0 dft_energy=-1100.4812805229744 tiny_gap_energy=-1100.4813200721992 pbc="F F F"
C        0.00392133      -0.00227744       0.00548595      -0.91365129      -0.02988496       0.48189371      -0.90320307      -0.03348056       0.48899430
H       -0.68840595       0.84014586      -0.12306642      -0.06378179       0.31723862       0.24041735      -0.07164533       0.32438707       0.23810599
H       -0.40679559      -0.79674695      -0.62005886      -0.07437700      -0.62117282       0.04061566      -0.08650822      -0.63072275       0.02657716
H        0.09031311      -0.28820119       1.08040228      -0.07940626       0.01446550      -0.48134649      -0.08530245       0.01036443      -0.45964351
H        0.95508866       0.27327373      -0.40159218       1.13121633       0.31935366      -0.28158023       1.14665906       0.32945181      -0.29403395
5
Lattice="50.0 0.0 0.0 0.0 50.0 0.0 0.0 0.0 50.0" Properties=species:S:1:pos:R:3:dft_forces:R:3:tiny_gap_forces:R:3 smiles=C config_type=methane_mol dft_normal_mode_energy=0.09602479379310166 dft_normal_mode_temperature=300.0 dft_energy=-1100.436712018994 tiny_gap_energy=-1100.436810112101 pbc="F F F"
C       -0.00599636       0.00082186       0.00558650      -0.38916980       0.17260714      -0.86834753      -0.39477680       0.16648593      -0.89162548
H       -0.67288509       0.93036177      -0.13433460       0.54914022      -1.35133877       0.47454311       0.54921262      -1.37370938       0.49216189
H       -0.37933338      -0.88889801      -0.59750209       0.16895531       0.94625011       0.43817090       0.16643844       0.96182995       0.44865202
H        0.13135284      -0.34014118       1.05092632      -0.30473366       0.37416479      -0.04042898      -0.31795426       0.38612434      -0.04221457
H        0.98924660       0.29021650      -0.38460170      -0.02419206      -0.14168327      -0.00393750      -0.00292001      -0.14073083      -0.00697386
5
Lattice="50.0 0.0 0.0 0.0 50.0 0.0 0.0 0.0 50.0" Properties=species:S:1:pos:R:3:dft_forces:R:3:tiny_gap_forces:R:3 smiles=C config_type=methane_mol dft_normal_mode_energy=0.17346249171851366 dft_normal_mode_temperature=300.0 dft_energy=-1100.3571337849194 tiny_gap_energy=-1100.3576266429804 pbc="F F F"
C        0.00116707       0.00559997      -0.00359242       0.08928586      -0.30890698       0.16678760       0.08937738      -0.29649795       0.16165157
H       -0.67823741       0.88305026      -0.14758841       0.11684210      -0.47187755       0.59412003       0.11268368      -0.46923867       0.59819616
H       -0.45944239      -0.88921139      -0.49221594       0.60970347       0.56520886      -0.65200954       0.62039026       0.56535071      -0.62748111
H        0.10012783      -0.40392225       1.03120033      -0.13870953       0.97281688       0.01318712      -0.15702285       0.95634610       0.00071093
H        1.02057107       0.34468609      -0.34753101      -0.67712189      -0.75724122      -0.12208521      -0.66542847      -0.75596020      -0.13307755
5
Lattice="50.0 0.0 0.0 0.0 50.0 0.0 0.0 0.0 50.0" Properties=species:S:1:pos:R:3:dft_forces:R:3:tiny_gap_forces:R:3 smiles=C config_type=methane_mol dft_normal_mode_energy=0.15025168313728693 dft_normal_mode_temperature=300.0 dft_energy=-1100.37567596339 tiny_gap_energy=-1100.375431460579 pbc="F F F"
C        0.01149108      -0.00267048       0.01456316      -0.83944775       0.71174763      -2.35255668      -0.83942517       0.74223228      -2.40586961
H       -0.72464744       0.81892434      -0.19266809       0.52113706       0.08237876       0.87879904       0.52514571       0.07047176       0.89272653
H       -0.49316093      -0.78436427      -0.60306222       0.84013757      -0.28242047       0.19562214       0.83155500      -0.29283181       0.20400554
H        0.07992093      -0.32531836       1.03553349      -0.00801046      -0.03225882       1.01658828      -0.01870121      -0.04525335       1.04568230
H        0.99788446       0.32391261      -0.41228123      -0.51381642      -0.47944710       0.26154721      -0.49857433      -0.47461888       0.26345525
5
Lattice="50.0 0.0 0.0 0.0 50.0 0.0 0.0 0.0 50.0" Properties=species:S:1:pos:R:3:dft_forces:R:3:tiny_gap_forces:R:3 smiles=C config_type=methane_mol dft_normal_mode_energy=0.0795770033830572 dft_normal_mode_temperature=300.0 dft_energy=-1100.4533404275426 tiny_gap_energy=-1100.4532419908712 pbc="F F F"
C        0.00019421      -0.00095377      -0.00771276       1.46682314      -0.33610945       0.90058680       1.49273294      -0.31628698       0.90613504
H       -0.68549388       0.82249284      -0.07301072      -0.53880458       1.01143447      -0.08298281      -0.55087650       1.00577220      -0.07503435
H       -0.45274582      -0.83390558      -0.55784401       0.33662448      -0.27203122      -0.29420374       0.33318192      -0.27789668      -0.29697359
H        0.08933671      -0.28897851       1.07391368      -0.09107087       0.07934420      -0.53149129      -0.10657955       0.07776134      -0.53319532
H        1.04351320       0.31309012      -0.35009609      -1.17357217      -0.48263800       0.00809105      -1.16845881      -0.48934988      -0.00093178
5
Lattice="50.0 0.0 0.0 0.0 50.0 0.0 0.0 0.0 50.0" Properties=species:S:1:pos:R:3:dft_forces:R:3:tiny_gap_forces:R:3 smiles=C config_type=methane_mol dft_normal_mode_energy=0.0826905364315499 dft_normal_mode_temperature=300.0 dft_energy=-1100.4490391162435 tiny_gap_energy=-1100.4492672934814 pbc="F F F"
C        0.00012967       0.00322830      -0.00522148      -1.44608497       0.20798601       1.58933225      -1.45078840       0.22908022       1.58936825
H       -0.70189182       0.90006610      -0.09604917       0.67458384      -0.98781685       0.17088216       0.66804875      -0.98764157       0.18026845
H       -0.38209327      -0.85932132      -0.55585334      -0.21724983      -0.14584356      -0.38356268      -0.22219095      -0.16379749      -0.38691263
H        0.10730376      -0.33851721       1.07361950      -0.22254639       0.54046978      -0.81020992      -0.22481382       0.54150119      -0.81796286
H        0.97206448       0.26063565      -0.35844176       1.21129735       0.38520462      -0.56644181       1.22974442       0.38085764      -0.56476121
5
Lattice="50.0 0.0 0.0 0.0 50.0 0.0 0.0 0.0 50.0" Properties=species:S:1:pos:R:3:dft_forces:R:3:tiny_gap_forces:R:3 smiles=C config_type=methane_mol dft_normal_mode_energy=0.0979605772127388 dft_normal_mode_temperature=300.0 dft_energy=-1100.4332632753856 tiny_gap_energy=-1100.4332030323171 pbc="F F F"
C       -0.00028016       0.01651914       0.00125556       0.42441567      -0.66859607      -0.10710029       0.46954686      -0.63707398      -0.09460582
H       -0.73086908       0.84443673      -0.10733346       0.40539767      -0.05422697       0.17018559       0.40286553      -0.04427988       0.16360663
H       -0.37280927      -0.86296958      -0.52487236      -0.31856079      -0.21260660      -0.69170506      -0.34447889      -0.25683183      -0.73362502
H        0.07924266      -0.39247886       1.02070888       0.05893997       0.63254088       0.38699559       0.05872738       0.62815947       0.42394092
H        1.02470003       0.21549935      -0.40240707      -0.57019252       0.30288876       0.24162416      -0.58666088       0.31002622       0.24068330
5
Lattice="50.0 0.0 0.0 0.0 50.0 0.0 0.0 0.0 50.0" Properties=species:S:1:pos:R:3:dft_forces:R:3:tiny_gap_forces:R:3 smiles=C config_type=methane_mol dft_normal_mode_energy=0.1130141801386705 dft_normal_mode_temperature=300.0 dft_energy=-1100.4203614212815 tiny_gap_energy=-1100.4202868902223 pbc="F F F"
C       -0.01390781      -0.00587337      -0.00596532       2.48201606       1.01766041       0.53068032       2.47145252       1.02380301       0.52860213
H       -0.64685389       0.86775393      -0.02601146      -0.63209900       0.58706377      -0.49212254      -0.61975346       0.58107064      -0.49326303
H       -0.34286881      -0.83258389      -0.59369254      -0.73548690      -0.96850400      -0.52147698      -0.71862590      -0.95768999      -0.52069782
H        0.11928307      -0.23177436       1.05445898      -0.12276122      -0.58251416       0.35266067      -0.11971043      -0.58282754       0.35282893
H        1.03309142       0.26792454      -0.36261407      -0.99166894      -0.05370603       0.13025854      -1.01336273      -0.06435612       0.13252979
5
Lattice="50.0 0.0 0.0 0.0 50.0 0.0 0.0 0.0 50.0" Properties=species:S:1:pos:R:3:dft_forces:R:3:tiny_gap_forces:R:3 smiles=C config_type=methane_mol dft_normal_mode_energy=0.1192470115468331 dft_normal_mode_temperature=300.0 dft_energy=-1100.4101554315994 tiny_gap_energy=-1100.4099407042656 pbc="F F F"
C       -0.00276835      -0.01011723      -0.00633138       0.28267927       0.72814787      -0.37128199       0.29780760       0.76572259      -0.36714309
H       -0.62443275       0.90425943      -0.08700300      -0.41483914      -0.37547360       0.09794697      -0.39726706      -0.38955897       0.09801142