
                                 *****************
                                 * O   R   C   A *
                                 *****************

           --- An Ab Initio, DFT and Semiempirical electronic structure package ---

                  #######################################################
                  #                        -***-                        #
                  #          Department of theory and spectroscopy      #
                  #               Directorship: Frank Neese             #
                  #        Max Planck Institute fuer Kohlenforschung    #
                  #                Kaiser Wilhelm Platz 1               #
                  #                 D-45470 Muelheim/Ruhr               #
                  #                      Germany                        #
                  #                                                     #
                  #                  All rights reserved                #
                  #                        -***-                        #
                  #######################################################


                         Program Version 4.2.1 -  RELEASE  -


 With contributions from (in alphabetic order):
   Daniel Aravena         : Magnetic Suceptibility
   Michael Atanasov       : Ab Initio Ligand Field Theory (pilot matlab implementation)
   Alexander A. Auer      : GIAO ZORA, VPT2
   Ute Becker             : Parallelization
   Giovanni Bistoni       : ED, misc. LED, open-shell LED, HFLD
   Martin Brehm           : Molecular dynamics
   Dmytro Bykov           : SCF Hessian
   Vijay G. Chilkuri      : MRCI spin determinant printing, contributions to CSF-ICE
   Dipayan Datta          : RHF DLPNO-CCSD density
   Achintya Kumar Dutta   : EOM-CC, STEOM-CC
   Dmitry Ganyushin       : Spin-Orbit,Spin-Spin,Magnetic field MRCI
   Miquel Garcia          : C-PCM Hessian, Gaussian charge scheme
   Yang Guo               : DLPNO-NEVPT2, CIM, IAO-localization
   Andreas Hansen         : Spin unrestricted coupled pair/coupled cluster methods
   Benjamin Helmich-Paris : CASSCF linear response (MC-RPA)
   Lee Huntington         : MR-EOM, pCC
   Robert Izsak           : Overlap fitted RIJCOSX, COSX-SCS-MP3, EOM
   Christian Kollmar      : KDIIS, OOCD, Brueckner-CCSD(T), CCSD density
   Simone Kossmann        : Meta GGA functionals, TD-DFT gradient, OOMP2, MP2 Hessian
   Martin Krupicka        : AUTO-CI
   Lucas Lang             : DCDCAS
   Dagmar Lenk            : GEPOL surface, SMD
   Dimitrios Liakos       : Extrapolation schemes; Compound Job, initial MDCI parallelization
   Dimitrios Manganas     : Further ROCIS development; embedding schemes
   Dimitrios Pantazis     : SARC Basis sets
   Taras Petrenko         : DFT Hessian,TD-DFT gradient, ASA, ECA, R-Raman, ABS, FL, XAS/XES, NRVS
   Peter Pinski           : DLPNO-MP2, DLPNO-MP2 Gradient
   Christoph Reimann      : Effective Core Potentials
   Marius Retegan         : Local ZFS, SOC
   Christoph Riplinger    : Optimizer, TS searches, QM/MM, DLPNO-CCSD(T), (RO)-DLPNO pert. Triples
   Tobias Risthaus        : Range-separated hybrids, TD-DFT gradient, RPA, STAB
   Michael Roemelt        : Original ROCIS implementation
   Masaaki Saitow         : Open-shell DLPNO-CCSD energy and density
   Barbara Sandhoefer     : DKH picture change effects
   Avijit Sen             : IP-ROCIS
   Kantharuban Sivalingam : CASSCF convergence, NEVPT2, FIC-MRCI
   Bernardo de Souza      : ESD, SOC TD-DFT
   Georgi Stoychev        : AutoAux, RI-MP2 NMR
   Willem Van den Heuvel  : Paramagnetic NMR
   Boris Wezisla          : Elementary symmetry handling
   Frank Wennmohs         : Technical directorship


 We gratefully acknowledge several colleagues who have allowed us to
 interface, adapt or use parts of their codes:
   Stefan Grimme, W. Hujo, H. Kruse,             : VdW corrections, initial TS optimization,
                  C. Bannwarth                     DFT functionals, gCP, sTDA/sTD-DF
   Ed Valeev, F. Pavosevic, A. Kumar             : LibInt (2-el integral package), F12 methods
   Garnet Chan, S. Sharma, J. Yang, R. Olivares  : DMRG
   Ulf Ekstrom                                   : XCFun DFT Library
   Mihaly Kallay                                 : mrcc  (arbitrary order and MRCC methods)
   Andreas Klamt, Michael Diedenhofen            : otool_cosmo (COSMO solvation model)
   Jiri Pittner, Ondrej Demel                    : Mk-CCSD
   Frank Weinhold                                : gennbo (NPA and NBO analysis)
   Christopher J. Cramer and Donald G. Truhlar   : smd solvation model
   Lars Goerigk                                  : TD-DFT with DH, B97 family of functionals
   V. Asgeirsson, H. Jonsson                     : NEB implementation
   FAccTs GmbH                                   : IRC, NEB, NEB-TS, Multilevel, MM, QM/MM, CI optimization
   S Lehtola, MJT Oliveira, MAL Marques          : LibXC Library


 Your calculation uses the libint2 library for the computation of 2-el integrals
 For citations please refer to: http://libint.valeyev.net

 Your ORCA version has been built with support for libXC version: 4.2.3
 For citations please refer to: https://tddft.org/programs/libxc/

 This ORCA versions uses:
   CBLAS   interface :  Fast vector & matrix operations
   LAPACKE interface :  Fast linear algebra routines
   SCALAPACK package :  Parallel linear algebra routines


Your calculation utilizes the atom-pairwise dispersion correction
with the Becke-Johnson damping scheme (D3BJ)
Cite in your paper:
S.Grimme, S.Ehrlich, L.Goerigk, J Comput Chem, (2011), 32, 1456–1465 
S.Grimme, J.Antony, S.Ehrlich and H.Krieg, J.Chem.Phys., 132, (2010), 154104 
   

----- Orbital basis set information -----
Your calculation utilizes the basis: def2-SV(P)
   F. Weigend and R. Ahlrichs, Phys. Chem. Chem. Phys. 7, 3297 (2005).

----- AuxJ basis set information -----
Your calculation utilizes the auxiliary basis: def2/J
   F. Weigend, Phys. Chem. Chem. Phys. 8, 1057 (2006).

================================================================================
                                        WARNINGS
                       Please study these warnings very carefully!
================================================================================


WARNING: Geometry Optimization
  ===> : Switching off AutoStart
         For restart on a previous wavefunction, please use MOREAD

INFO   : the flag for use of LIBINT has been found!

================================================================================
                                       INPUT FILE
================================================================================
NAME = orca5.inp
|  1> ! UKS B3LYP def2-SV(P) def2/J D3BJ Opt
|  2> %scf Convergence VeryTight
|  3> SmearTemp 2000
|  4> maxiter 500
|  5> end
|  6> *xyz 0 1
|  7> C 2.373824 -0.333291 0.648418
|  8> C 1.540505 -0.351136 -0.622748
|  9> C 0.61961 0.833627 -0.716445
| 10> C -0.827835 0.442491 -0.857051
| 11> C -1.615625 0.580617 0.415286
| 12> C -2.1803 -0.782525 0.791075
| 13> H 3.328306 -0.878683 0.459355
| 14> H 1.878753 -0.849451 1.488313
| 15> H 2.628946 0.725924 0.869934
| 16> H 2.266412 -0.407077 -1.472195
| 17> H 0.950868 -1.300937 -0.671452
| 18> H 0.918492 1.398172 -1.636065
| 19> H 0.789085 1.523378 0.131153
| 20> H -1.312211 1.088021 -1.631362
| 21> H -0.856651 -0.589757 -1.276873
| 22> H -1.04365 1.029381 1.247559
| 23> H -2.508578 1.239611 0.273901
| 24> H -3.189924 -0.687097 1.26327
| 25> H -2.313356 -1.391091 -0.137076
| 26> H -1.446672 -1.290176 1.433001
| 27> *
| 28> 
| 29>                          ****END OF INPUT****
================================================================================

                       *****************************
                       * Geometry Optimization Run *
                       *****************************

Geometry optimization settings:
Update method            Update   .... BFGS
Choice of coordinates    CoordSys .... Z-matrix Internals
Initial Hessian          InHess   .... Almoef's Model

Convergence Tolerances:
Energy Change            TolE     ....  5.0000e-06 Eh
Max. Gradient            TolMAXG  ....  3.0000e-04 Eh/bohr
RMS Gradient             TolRMSG  ....  1.0000e-04 Eh/bohr
Max. Displacement        TolMAXD  ....  4.0000e-03 bohr
RMS Displacement         TolRMSD  ....  2.0000e-03 bohr
Strict Convergence                ....  False
------------------------------------------------------------------------------
                        ORCA OPTIMIZATION COORDINATE SETUP
------------------------------------------------------------------------------

The optimization will be done in new redundant internal coordinates
Making redundant internal coordinates   ...  (new redundants) done
Evaluating the initial hessian          ...  (Almloef) done
Evaluating the coordinates              ...  done
Calculating the B-matrix                .... done
Calculating the G-matrix                .... done
Diagonalizing the G-matrix              .... done
Small eigenvalue found = 1.866e-02
The first mode is                       ....   46
The number of degrees of freedom        ....   54

    -----------------------------------------------------------------
                    Redundant Internal Coordinates


    -----------------------------------------------------------------
         Definition                    Initial Value    Approx d2E/dq
    -----------------------------------------------------------------
      1. B(C   1,C   0)                  1.5201         0.387459   
      2. B(C   2,C   1)                  1.5035         0.411783   
      3. B(C   3,C   2)                  1.5059         0.408098   
      4. B(C   4,C   3)                  1.5028         0.412769   
      5. B(C   5,C   4)                  1.5226         0.383906   
      6. B(H   6,C   0)                  1.1155         0.327956   
      7. B(H   7,C   0)                  1.1032         0.343118   
      8. B(H   8,C   0)                  1.1118         0.332389   
      9. B(H   9,C   1)                  1.1188         0.323992   
     10. B(H  10,C   1)                  1.1190         0.323707   
     11. B(H  11,C   2)                  1.1197         0.322871   
     12. B(H  12,C   2)                  1.1058         0.339733   
     13. B(H  13,C   3)                  1.1184         0.324388   
     14. B(H  14,C   3)                  1.1147         0.328831   
     15. B(H  15,C   4)                  1.1051         0.340682   
     16. B(H  16,C   4)                  1.1188         0.323993   
     17. B(H  17,C   5)                  1.1187         0.324106   
     18. B(H  18,C   5)                  1.1178         0.325116   
     19. B(H  19,C   5)                  1.0991         0.348280   
     20. A(H   7,C   0,H   8)          113.3941         0.285059   
     21. A(C   1,C   0,H   7)          112.6545         0.323690   
     22. A(C   1,C   0,H   6)          108.7609         0.321302   
     23. A(H   6,C   0,H   7)          106.5163         0.284464   
     24. A(H   6,C   0,H   8)          107.6520         0.283064   
     25. A(C   1,C   0,H   8)          107.6739         0.322009   
     26. A(C   2,C   1,H  10)          110.0839         0.323831   
     27. A(C   0,C   1,H  10)          109.5867         0.320617   
     28. A(C   2,C   1,H   9)          112.9238         0.323878   
     29. A(C   0,C   1,H   9)          106.2500         0.320663   
     30. A(H   9,C   1,H  10)          105.4507         0.281374   
     31. A(C   0,C   1,C   2)          112.2499         0.371791   
     32. A(H  11,C   2,H  12)          105.9094         0.283337   
     33. A(C   1,C   2,C   3)          112.9460         0.375133   
     34. A(C   3,C   2,H  11)          108.1093         0.323217   
     35. A(C   1,C   2,H  11)          106.5585         0.323694   
     36. A(C   1,C   2,H  12)          110.4793         0.326414   
     37. A(C   3,C   2,H  12)          112.3873         0.325931   
     38. A(C   2,C   3,C   4)          113.6357         0.375288   
     39. A(H  13,C   3,H  14)          105.2206         0.282113   
     40. A(C   4,C   3,H  14)          112.9799         0.324795   
     41. A(C   2,C   3,H  14)          107.4889         0.324188   
     42. A(C   4,C   3,H  13)          107.8220         0.324070   
     43. A(C   2,C   3,H  13)          109.3292         0.323465   
     44. A(H  15,C   4,H  16)          105.6101         0.283613   
     45. A(C   5,C   4,H  16)          105.2207         0.320181   
     46. A(C   3,C   4,H  16)          111.4410         0.324005   
     47. A(C   5,C   4,H  15)          111.6935         0.322824   
     48. A(C   3,C   4,H  15)          113.8047         0.326692   
     49. A(C   3,C   4,C   5)          108.7282         0.371355   
     50. A(C   4,C   5,H  17)          111.2554         0.320199   
     51. A(H  18,C   5,H  19)          108.2368         0.284740   
     52. A(H  17,C   5,H  19)          113.2843         0.284602   
     53. A(C   4,C   5,H  19)          108.0665         0.323994   
     54. A(H  17,C   5,H  18)          106.8278         0.281579   
     55. A(C   4,C   5,H  18)          109.0641         0.320362   
     56. D(H   9,C   1,C   0,H   8)     87.8116         0.011942   
     57. D(H  10,C   1,C   0,H   7)    -32.9479         0.011942   
     58. D(H   9,C   1,C   0,H   7)   -146.4167         0.011942   
     59. D(H  10,C   1,C   0,H   8)   -158.7195         0.011942   
     60. D(H   9,C   1,C   0,H   6)    -28.5698         0.011942   
     61. D(C   2,C   1,C   0,H   8)    -36.0782         0.011942   
     62. D(C   2,C   1,C   0,H   7)     89.6934         0.011942   
     63. D(C   2,C   1,C   0,H   6)   -152.4596         0.011942   
     64. D(H  10,C   1,C   0,H   6)     84.8991         0.011942   
     65. D(H  11,C   2,C   1,H   9)     -1.3388         0.013429   
     66. D(C   3,C   2,C   1,H  10)     -0.3383         0.013429   
     67. D(C   3,C   2,C   1,C   0)   -122.6981         0.013429   
     68. D(H  11,C   2,C   1,C   0)    118.7459         0.013429   
     69. D(H  11,C   2,C   1,H  10)   -118.8944         0.013429   
     70. D(H  12,C   2,C   1,H  10)    126.5035         0.013429   
     71. D(H  12,C   2,C   1,H   9)   -115.9409         0.013429   
     72. D(H  12,C   2,C   1,C   0)      4.1438         0.013429   
     73. D(C   3,C   2,C   1,H   9)    117.2172         0.013429   
     74. D(H  14,C   3,C   2,H  11)     94.4958         0.013196   
     75. D(H  14,C   3,C   2,C   1)    -23.1538         0.013196   
     76. D(H  13,C   3,C   2,H  12)     97.3054         0.013196   
     77. D(H  13,C   3,C   2,H  11)    -19.2215         0.013196   
     78. D(H  13,C   3,C   2,C   1)   -136.8712         0.013196   
     79. D(C   4,C   3,C   2,H  11)   -139.7222         0.013196   
     80. D(C   4,C   3,C   2,H  12)    -23.1953         0.013196   
     81. D(H  14,C   3,C   2,H  12)   -148.9772         0.013196   
     82. D(C   4,C   3,C   2,C   1)    102.6282         0.013196   
     83. D(H  15,C   4,C   3,C   2)      4.9199         0.013492   
     84. D(C   5,C   4,C   3,H  14)      2.5518         0.013492   
     85. D(C   5,C   4,C   3,H  13)    118.3926         0.013492   
     86. D(C   5,C   4,C   3,C   2)   -120.2612         0.013492   
     87. D(H  16,C   4,C   3,H  14)   -112.9774         0.013492   
     88. D(H  16,C   4,C   3,H  13)      2.8634         0.013492   
     89. D(H  16,C   4,C   3,C   2)    124.2097         0.013492   
     90. D(H  15,C   4,C   3,H  14)    127.7328         0.013492   
     91. D(H  15,C   4,C   3,H  13)   -116.4264         0.013492   
     92. D(H  19,C   5,C   4,H  16)   -150.3489         0.011734   
     93. D(H  19,C   5,C   4,H  15)    -36.2466         0.011734   
     94. D(H  19,C   5,C   4,C   3)     90.1622         0.011734   
     95. D(H  18,C   5,C   4,H  16)     92.1990         0.011734   
     96. D(H  18,C   5,C   4,H  15)   -153.6986         0.011734   
     97. D(H  18,C   5,C   4,C   3)    -27.2898         0.011734   
     98. D(H  17,C   5,C   4,H  16)    -25.3869         0.011734   
     99. D(H  17,C   5,C   4,H  15)     88.7154         0.011734   
    100. D(H  17,C   5,C   4,C   3)   -144.8758         0.011734   
    -----------------------------------------------------------------

Number of atoms                         .... 20
Number of degrees of freedom            .... 100

Time needed for optimization step       :     1.81 sec

         *************************************************************
         *                GEOMETRY OPTIMIZATION CYCLE   1            *
         *************************************************************
---------------------------------
CARTESIAN COORDINATES (ANGSTROEM)
---------------------------------
  C      2.373824   -0.333291    0.648418
  C      1.540505   -0.351136   -0.622748
  C      0.619610    0.833627   -0.716445
  C     -0.827835    0.442491   -0.857051
  C     -1.615625    0.580617    0.415286
  C     -2.180300   -0.782525    0.791075
  H      3.328306   -0.878683    0.459355
  H      1.878753   -0.849451    1.488313
  H      2.628946    0.725924    0.869934
  H      2.266412   -0.407077   -1.472195
  H      0.950868   -1.300937   -0.671452
  H      0.918492    1.398172   -1.636065
  H      0.789085    1.523378    0.131153
  H     -1.312211    1.088021   -1.631362
  H     -0.856651   -0.589757   -1.276873
  H     -1.043650    1.029381    1.247559
  H     -2.508578    1.239611    0.273901
  H     -3.189924   -0.687097    1.263270
  H     -2.313356   -1.391091   -0.137076
  H     -1.446672   -1.290176    1.433001

----------------------------
CARTESIAN COORDINATES (A.U.)
----------------------------
  NO LB      ZA    FRAG     MASS         X           Y           Z
   0 C     6.0000    0    12.011    4.485877   -0.629829    1.225332
   1 C     6.0000    0    12.011    2.911133   -0.663551   -1.176823
   2 C     6.0000    0    12.011    1.170893    1.575327   -1.353885
   3 C     6.0000    0    12.011   -1.564381    0.836187   -1.619592
   4 C     6.0000    0    12.011   -3.053089    1.097207    0.784777
   5 C     6.0000    0    12.011   -4.120170   -1.478758    1.494915
   6 H     1.0000    0     1.008    6.289587   -1.660470    0.868055
   7 H     1.0000    0     1.008    3.550329   -1.605230    2.812504
   8 H     1.0000    0     1.008    4.967988    1.371798    1.643937
   9 H     1.0000    0     1.008    4.282898   -0.769264   -2.782045
  10 H     1.0000    0     1.008    1.796880   -2.458415   -1.268860
  11 H     1.0000    0     1.008    1.735698    2.642162   -3.091715
  12 H     1.0000    0     1.008    1.491155    2.878767    0.247843
  13 H     1.0000    0     1.008   -2.479719    2.056062   -3.082827
  14 H     1.0000    0     1.008   -1.618836   -1.114479   -2.412940
  15 H     1.0000    0     1.008   -1.972213    1.945248    2.357545
  16 H     1.0000    0     1.008   -4.740525    2.342525    0.517598
  17 H     1.0000    0     1.008   -6.028083   -1.298425    2.387234
  18 H     1.0000    0     1.008   -4.371609   -2.628781   -0.259036
  19 H     1.0000    0     1.008   -2.733814   -2.438079    2.707979

--------------------------------
INTERNAL COORDINATES (ANGSTROEM)
--------------------------------
 C      0   0   0     0.000000000000     0.00000000     0.00000000
 C      1   0   0     1.520066445700     0.00000000     0.00000000
 C      2   1   0     1.503492632174   112.24985916     0.00000000
 C      3   2   1     1.505939721821   112.94597338   237.30188848
 C      4   3   2     1.502841747339   113.63572302   102.62815233
 C      5   4   3     1.522573919490   108.72822285   239.73883670
 H      1   2   3     1.115451989086   108.76087520   207.54035873
 H      1   2   3     1.103150058544   112.65452850    89.69341880
 H      1   2   3     1.111797188954   107.67387128   323.92180425
 H      2   1   3     1.118762965931   106.24995656   123.88983590
 H      2   1   3     1.119002149679   109.58665915   237.35870963
 H      3   2   1     1.119706413016   106.55848202   118.74585176
 H      3   2   1     1.105848356345   110.47933955     4.14377431
 H      4   3   2     1.118430424746   109.32915013   223.12884127
 H      4   3   2     1.114727234369   107.48890563   336.84617622
 H      5   4   3     1.105089532504   113.80466472     4.91986556
 H      5   4   3     1.118761757690   111.44096121   124.20967369
 H      6   5   4     1.118666725430   111.25539990   215.12420186
 H      6   5   4     1.117819643007   109.06414892   332.71017969
 H      6   5   4     1.099085333203   108.06649624    90.16224235

---------------------------
INTERNAL COORDINATES (A.U.)
---------------------------
 C      0   0   0     0.000000000000     0.00000000     0.00000000
 C      1   0   0     2.872509287735     0.00000000     0.00000000
 C      2   1   0     2.841189319178   112.24985916     0.00000000
 C      3   2   1     2.845813648434   112.94597338   237.30188848
 C      4   3   2     2.839959325094   113.63572302   102.62815233
 C      5   4   3     2.877247726486   108.72822285   239.73883670
 H      1   2   3     2.107898774911   108.76087520   207.54035873
 H      1   2   3     2.084651495268   112.65452850    89.69341880
 H      1   2   3     2.100992203586   107.67387128   323.92180425
 H      2   1   3     2.114155614383   106.24995656   123.88983590
 H      2   1   3     2.114607606162   109.58665915   237.35870963
 H      3   2   1     2.115938470995   106.55848202   118.74585176
 H      3   2   1     2.089750539138   110.47933955     4.14377431
 H      4   3   2     2.113527202615   109.32915013   223.12884127
 H      4   3   2     2.106529186981   107.48890563   336.84617622
 H      5   4   3     2.088316569896   113.80466472     4.91986556
 H      5   4   3     2.114153331139   111.44096121   124.20967369
 H      6   5   4     2.113973746194   111.25539990   215.12420186
 H      6   5   4     2.112372992401   109.06414892   332.71017969
 H      6   5   4     2.076970277562   108.06649624    90.16224235

---------------------
BASIS SET INFORMATION
---------------------
There are 2 groups of distinct atoms

 Group   1 Type C   : 7s4p1d contracted to 3s2p1d pattern {511/31/1}
 Group   2 Type H   : 4s contracted to 2s pattern {31}

Atom   0C    basis set group =>   1
Atom   1C    basis set group =>   1
Atom   2C    basis set group =>   1
Atom   3C    basis set group =>   1
Atom   4C    basis set group =>   1
Atom   5C    basis set group =>   1
Atom   6H    basis set group =>   2
Atom   7H    basis set group =>   2
Atom   8H    basis set group =>   2
Atom   9H    basis set group =>   2
Atom  10H    basis set group =>   2
Atom  11H    basis set group =>   2
Atom  12H    basis set group =>   2
Atom  13H    basis set group =>   2
Atom  14H    basis set group =>   2
Atom  15H    basis set group =>   2
Atom  16H    basis set group =>   2
Atom  17H    basis set group =>   2
Atom  18H    basis set group =>   2
Atom  19H    basis set group =>   2
---------------------------------
AUXILIARY/J BASIS SET INFORMATION
---------------------------------
There are 2 groups of distinct atoms

 Group   1 Type C   : 12s5p4d2f1g contracted to 6s4p3d1f1g pattern {711111/2111/211/2/1}
 Group   2 Type H   : 5s2p1d contracted to 3s1p1d pattern {311/2/1}

Atom   0C    basis set group =>   1
Atom   1C    basis set group =>   1
Atom   2C    basis set group =>   1
Atom   3C    basis set group =>   1
Atom   4C    basis set group =>   1
Atom   5C    basis set group =>   1
Atom   6H    basis set group =>   2
Atom   7H    basis set group =>   2
Atom   8H    basis set group =>   2
Atom   9H    basis set group =>   2
Atom  10H    basis set group =>   2
Atom  11H    basis set group =>   2
Atom  12H    basis set group =>   2
Atom  13H    basis set group =>   2
Atom  14H    basis set group =>   2
Atom  15H    basis set group =>   2
Atom  16H    basis set group =>   2
Atom  17H    basis set group =>   2
Atom  18H    basis set group =>   2
Atom  19H    basis set group =>   2
------------------------------------------------------------------------------
                           ORCA GTO INTEGRAL CALCULATION
------------------------------------------------------------------------------

                         BASIS SET STATISTICS AND STARTUP INFO

 # of primitive gaussian shells          ...  128
 # of primitive gaussian functions       ...  200
 # of contracted shells                  ...   64
 # of contracted basis functions         ...  112
 Highest angular momentum                ...    2
 Maximum contraction depth               ...    5
 Integral package used                   ... LIBINT
 Integral threshhold            Thresh   ...  1.000e-12
 Primitive cut-off              TCut     ...  1.000e-14


------------------------------ INTEGRAL EVALUATION ----------------------------


 * One electron integrals 
 Pre-screening matrix                    ... done
 Shell pair data                         ... done (   0.001 sec)

-------------------------------------------------------------------------------
                                 ORCA SCF
-------------------------------------------------------------------------------

------------
SCF SETTINGS
------------
Hamiltonian:
 Density Functional     Method          .... DFT(GTOs)
 Exchange Functional    Exchange        .... B88
   X-Alpha parameter    XAlpha          ....  0.666667
   Becke's b parameter  XBeta           ....  0.004200
 Correlation Functional Correlation     .... LYP
 LDA part of GGA corr.  LDAOpt          .... VWN-5
 Gradients option       PostSCFGGA      .... off
 Hybrid DFT is turned on
   Fraction HF Exchange ScalHFX         ....  0.200000
   Scaling of DF-GGA-X  ScalDFX         ....  0.720000
   Scaling of DF-GGA-C  ScalDFC         ....  0.810000
   Scaling of DF-LDA-C  ScalLDAC        ....  1.000000
   Perturbative correction              ....  0.000000
   Density functional embedding theory  .... OFF
   NL short-range parameter             ....  4.800000


General Settings:
 Integral files         IntName         .... orca5
 Hartree-Fock type      HFTyp           .... UHF
 Total Charge           Charge          ....    0
 Multiplicity           Mult            ....    1
 Number of Electrons    NEL             ....   50
 Basis Dimension        Dim             ....  112
 Nuclear Repulsion      ENuc            ....    253.4106397373 Eh

Convergence Acceleration:
 DIIS                   CNVDIIS         .... on
   Start iteration      DIISMaxIt       ....    12
   Startup error        DIISStart       ....  0.200000
   # of expansion vecs  DIISMaxEq       ....     5
   Bias factor          DIISBfac        ....   1.050
   Max. coefficient     DIISMaxC        ....  10.000
 Newton-Raphson         CNVNR           .... off
 SOSCF                  CNVSOSCF        .... off
 Level Shifting         CNVShift        .... on
   Level shift para.    LevelShift      ....    0.2500
   Turn off err/grad.   ShiftErr        ....    0.0010
 Zerner damping         CNVZerner       .... off
 Static damping         CNVDamp         .... on
   Fraction old density DampFac         ....    0.7000
   Max. Damping (<1)    DampMax         ....    0.9800
   Min. Damping (>=0)   DampMin         ....    0.0000
   Turn off err/grad.   DampErr         ....    0.1000
 Fernandez-Rico         CNVRico         .... off

SCF Procedure:
 Maximum # iterations   MaxIter         ....   500
 SCF integral mode      SCFMode         .... Direct
   Integral package                     .... LIBINT
 Reset frequency        DirectResetFreq ....    20
 Integral Threshold     Thresh          ....  1.000e-12 Eh
 Primitive CutOff       TCut            ....  1.000e-14 Eh

Convergence Tolerance:
 Convergence Check Mode ConvCheckMode   .... Total+1el-Energy
 Convergence forced     ConvForced      .... 0
 Energy Change          TolE            ....  1.000e-09 Eh
 1-El. energy change                    ....  1.000e-06 Eh
 DIIS Error             TolErr          ....  1.000e-08


Diagonalization of the overlap matrix:
Smallest eigenvalue                        ... 1.970e-03
Time for diagonalization                   ...    0.002 sec
Threshold for overlap eigenvalues          ... 1.000e-08
Number of eigenvalues below threshold      ... 0
Time for construction of square roots      ...    2.251 sec
Total time needed                          ...    2.253 sec

-------------------
DFT GRID GENERATION
-------------------

General Integration Accuracy     IntAcc      ...  4.340
Radial Grid Type                 RadialGrid  ... Gauss-Chebyshev
Angular Grid (max. acc.)         AngularGrid ... Lebedev-110
Angular grid pruning method      GridPruning ... 3 (G Style)
Weight generation scheme         WeightScheme... Becke
Basis function cutoff            BFCut       ...    1.0000e-12
Integration weight cutoff        WCut        ...    1.0000e-14
Grids for H and He will be reduced by one unit

# of grid points (after initial pruning)     ...  21052 (   0.0 sec)
# of grid points (after weights+screening)   ...  19252 (   0.1 sec)
nearest neighbour list constructed           ...    0.0 sec
Grid point re-assignment to atoms done       ...    0.0 sec
Grid point division into batches done        ...    0.0 sec
Reduced shell lists constructed in    0.1 sec

Total number of grid points                  ...    19252
Total number of batches                      ...      310
Average number of points per batch           ...       62
Average number of grid points per atom       ...      963
Average number of shells per batch           ...    51.78 (80.91%)
Average number of basis functions per batch  ...    89.69 (80.08%)
Average number of large shells per batch     ...    42.74 (82.54%)
Average number of large basis fcns per batch ...    73.42 (81.86%)
Maximum spatial batch extension              ...  18.15, 21.72, 19.52 au
Average spatial batch extension              ...   3.36,  3.75,  3.56 au

Time for grid setup =    2.260 sec

------------------------------
INITIAL GUESS: MODEL POTENTIAL
------------------------------
Loading Hartree-Fock densities                     ... done
Calculating cut-offs                               ... done
Setting up the integral package                    ... done
Initializing the effective Hamiltonian             ... done
Starting the Coulomb interaction                   ... done (   0.1 sec)
Reading the grid                                   ... done
Mapping shells                                     ... done
Starting the XC term evaluation                    ... done (   0.2 sec)
  promolecular density results
     # of electrons  =     49.999367331
     EX              =    -35.003958403
     EC              =     -1.576042376
     EX+EC           =    -36.580000779
Transforming the Hamiltonian                       ... done (   0.0 sec)
Diagonalizing the Hamiltonian                      ... done (   0.0 sec)
Back transforming the eigenvectors                 ... done (   0.0 sec)
Now organizing SCF variables                       ... done
                      ------------------
                      INITIAL GUESS DONE (   2.6 sec)
                      ------------------
--------------
SCF ITERATIONS
--------------
ITER       Energy         Delta-E        Max-DP      RMS-DP      [F,P]     Damp
               ***  Starting incremental Fock matrix formation  ***
  0   -236.4163285786   0.000000000000 0.04216969  0.00182659  0.1737774 0.7000
  1   -236.5331132327  -0.116784654030 0.02590758  0.00129590  0.0895733 0.7000
                               ***Turning on DIIS***
  2   -236.5788335534  -0.045720320747 0.03552911  0.00212302  0.0327716 0.0000
  3   -236.6412296455  -0.062396092093 0.01725566  0.00087564  0.0494879 0.0000
  4   -236.6618393733  -0.020609727817 0.00331597  0.00026716  0.0105931 0.0000
  5   -236.6628185495  -0.000979176211 0.00122916  0.00009196  0.0019574 0.0000
  6   -236.6628753874  -0.000056837889 0.00055684  0.00004676  0.0006217 0.0000
  7   -236.6628797413  -0.000004353860 0.00018256  0.00000543  0.0003219 0.0000
  8   -236.6628801441  -0.000000402791 0.00003194  0.00000148  0.0000543 0.0000
  9   -236.6628801658  -0.000000021691 0.00000801  0.00000038  0.0000118 0.0000
 10   -236.6628801665  -0.000000000697 0.00000410  0.00000016  0.0000069 0.0000
 11   -236.6628801668  -0.000000000320 0.00000095  0.00000005  0.0000022 0.0000
 12   -236.6628801668  -0.000000000018 0.00000021  0.00000001  0.0000004 0.0000
 13   -236.6628801668  -0.000000000011 0.00000012  0.00000000  0.0000002 0.0000
 14   -236.6628801668  -0.000000000020 0.00000004  0.00000000  0.0000001 0.0000
                 **** Energy Check signals convergence ****

 Fermi smearing  (ALPHA): E(HOMO(Eh)) = -0.290423 MUE = -0.122170 gap=   9.157 eV
 Fermi smearing   (BETA): E(HOMO(Eh)) = -0.290423 MUE = -0.122170 gap=   9.157 eV

N_FOD(alpha) =  0.000000
 N_FOD(beta) =  0.000000
       N_FOD =  0.000000

               *****************************************************
               *                     SUCCESS                       *
               *           SCF CONVERGED AFTER  15 CYCLES          *
               *****************************************************

Setting up the final grid:

General Integration Accuracy     IntAcc      ...  4.670
Radial Grid Type                 RadialGrid  ... Gauss-Chebyshev
Angular Grid (max. acc.)         AngularGrid ... Lebedev-302
Angular grid pruning method      GridPruning ... 3 (G Style)
Weight generation scheme         WeightScheme... Becke
Basis function cutoff            BFCut       ...    1.0000e-12
Integration weight cutoff        WCut        ...    1.0000e-14
Grids for H and He will be reduced by one unit

# of grid points (after initial pruning)     ...  84788 (   0.0 sec)
# of grid points (after weights+screening)   ...  76159 (   0.3 sec)
nearest neighbour list constructed           ...    0.0 sec
Grid point re-assignment to atoms done       ...    0.0 sec
Grid point division into batches done        ...    0.2 sec
Reduced shell lists constructed in    0.5 sec

Total number of grid points                  ...    76159
Total number of batches                      ...     1200
Average number of points per batch           ...       63
Average number of grid points per atom       ...     3808
Average number of shells per batch           ...    48.55 (75.85%)
Average number of basis functions per batch  ...    83.61 (74.65%)
Average number of large shells per batch     ...    39.50 (81.37%)
Average number of large basis fcns per batch ...    67.56 (80.80%)
Maximum spatial batch extension              ...  17.45, 19.39, 18.24 au
Average spatial batch extension              ...   2.27,  2.43,  2.40 au

Final grid set up in    1.8 sec
Final integration                            ... done (   8.8 sec)
Change in XC energy                          ...     0.000757251
Integrated number of electrons               ...    50.000156465
Previous integrated no of electrons          ...    50.005082066

----------------
TOTAL SCF ENERGY
----------------

Total Energy       :         -236.66212292 Eh           -6439.90376 eV

Components:
Nuclear Repulsion  :          253.41063974 Eh            6895.65408 eV
Electronic Energy  :         -490.07276265 Eh          -13335.55784 eV
One Electron Energy:         -818.62850420 Eh          -22276.01409 eV
Two Electron Energy:          328.55574155 Eh            8940.45625 eV

Virial components:
Potential Energy   :         -470.89922704 Eh          -12813.81941 eV
Kinetic Energy     :          234.23710412 Eh            6373.91565 eV
Virial Ratio       :            2.01035284


DFT components:
N(Alpha)           :       25.000078232538 electrons
N(Beta)            :       25.000078232538 electrons
N(Total)           :       50.000156465076 electrons
E(X)               :      -28.511500334233 Eh       
E(C)               :       -1.870899187185 Eh       
E(XC)              :      -30.382399521418 Eh       
DFET-embed. en.    :        0.000000000000 Eh       

---------------
SCF CONVERGENCE
---------------

  Last Energy change         ...    8.9528e-12  Tolerance :   1.0000e-09
  Last MAX-Density change    ...    4.6876e-09  Tolerance :   1.0000e-08
  Last RMS-Density change    ...    2.0331e-10  Tolerance :   1.0000e-09
  Last DIIS Error            ...    9.2363e-09  Tolerance :   1.0000e-08

             **** THE GBW FILE WAS UPDATED (orca5.gbw) ****
             **** DENSITY FILE WAS UPDATED (orca5.scfp) ****
             **** ENERGY FILE WAS UPDATED (orca5.en.tmp) ****
             **** THE GBW FILE WAS UPDATED (orca5.gbw) ****
             **** DENSITY FILE WAS UPDATED (orca5.scfp) ****
----------------
ORBITAL ENERGIES
----------------
                 SPIN UP ORBITALS
  NO   OCC          E(Eh)            E(eV) 
   0   1.0000     -10.167659      -276.6761 
   1   1.0000     -10.167220      -276.6641 
   2   1.0000     -10.164596      -276.5927 
   3   1.0000     -10.164524      -276.5908 
   4   1.0000     -10.164196      -276.5818 
   5   1.0000     -10.163192      -276.5545 
   6   1.0000      -0.803483       -21.8639 
   7   1.0000      -0.758207       -20.6319 
   8   1.0000      -0.695715       -18.9314 
   9   1.0000      -0.624335       -16.9890 
  10   1.0000      -0.570108       -15.5134 
  11   1.0000      -0.562166       -15.2973 
  12   1.0000      -0.472743       -12.8640 
  13   1.0000      -0.444698       -12.1008 
  14   1.0000      -0.435047       -11.8382 
  15   1.0000      -0.420099       -11.4315 
  16   1.0000      -0.404344       -11.0028 
  17   1.0000      -0.388792       -10.5796 
  18   1.0000      -0.361133        -9.8269 
  19   1.0000      -0.343510        -9.3474 
  20   1.0000      -0.337639        -9.1876 
  21   1.0000      -0.335324        -9.1246 
  22   1.0000      -0.327246        -8.9048 
  23   1.0000      -0.295854        -8.0506 
  24   1.0000      -0.290423        -7.9028 
  25   0.0000       0.046084         1.2540 
  26   0.0000       0.069178         1.8824 
  27   0.0000       0.074212         2.0194 
  28   0.0000       0.082020         2.2319 
  29   0.0000       0.108063         2.9405 
  30   0.0000       0.111132         3.0241 
  31   0.0000       0.120909         3.2901 
  32   0.0000       0.130323         3.5463 
  33   0.0000       0.137456         3.7404 
  34   0.0000       0.157213         4.2780 
  35   0.0000       0.162848         4.4313 
  36   0.0000       0.190918         5.1951 
  37   0.0000       0.196131         5.3370 
  38   0.0000       0.196922         5.3585 
  39   0.0000       0.220683         6.0051 
  40   0.0000       0.259845         7.0708 
  41   0.0000       0.262243         7.1360 
  42   0.0000       0.295600         8.0437 
  43   0.0000       0.315284         8.5793 
  44   0.0000       0.395645        10.7660 
  45   0.0000       0.422567        11.4986 
  46   0.0000       0.440822        11.9954 
  47   0.0000       0.465958        12.6794 
  48   0.0000       0.475812        12.9475 
  49   0.0000       0.492689        13.4067 
  50   0.0000       0.525776        14.3071 
  51   0.0000       0.538169        14.6443 
  52   0.0000       0.548648        14.9295 
  53   0.0000       0.604400        16.4466 
  54   0.0000       0.634616        17.2688 
  55   0.0000       0.642182        17.4747 
  56   0.0000       0.647039        17.6068 
  57   0.0000       0.651540        17.7293 
  58   0.0000       0.661035        17.9877 
  59   0.0000       0.670195        18.2369 
  60   0.0000       0.672297        18.2941 
  61   0.0000       0.685861        18.6632 
  62   0.0000       0.696575        18.9548 
  63   0.0000       0.700033        19.0489 
  64   0.0000       0.703598        19.1459 
  65   0.0000       0.715625        19.4731 
  66   0.0000       0.719615        19.5817 
  67   0.0000       0.727366        19.7926 
  68   0.0000       0.734375        19.9834 
  69   0.0000       0.737456        20.0672 
  70   0.0000       0.748108        20.3570 
  71   0.0000       0.750421        20.4200 
  72   0.0000       0.770941        20.9784 
  73   0.0000       0.777009        21.1435 
  74   0.0000       0.783590        21.3226 
  75   0.0000       0.828065        22.5328 
  76   0.0000       0.867606        23.6087 
  77   0.0000       0.920491        25.0478 
  78   0.0000       0.958796        26.0902 
  79   0.0000       1.140197        31.0263 
  80   0.0000       1.142735        31.0954 
  81   0.0000       1.197851        32.5952 
  82   0.0000       1.391555        37.8661 
  83   0.0000       1.396190        37.9923 
  84   0.0000       1.608993        43.7829 
  85   0.0000       1.643068        44.7102 
  86   0.0000       1.718719        46.7687 
  87   0.0000       1.810138        49.2564 
  88   0.0000       1.837523        50.0015 
  89   0.0000       1.850950        50.3669 
  90   0.0000       1.881114        51.1877 
  91   0.0000       1.907444        51.9042 
  92   0.0000       1.930583        52.5338 
  93   0.0000       1.947240        52.9871 
  94   0.0000       2.019779        54.9610 
  95   0.0000       2.026506        55.1440 
  96   0.0000       2.058907        56.0257 
  97   0.0000       2.085899        56.7602 
  98   0.0000       2.110037        57.4170 
  99   0.0000       2.154678        58.6318 
 100   0.0000       2.207748        60.0759 
 101   0.0000       2.261556        61.5401 
 102   0.0000       2.295575        62.4658 
 103   0.0000       2.305575        62.7379 
 104   0.0000       2.366910        64.4069 
 105   0.0000       2.433950        66.2312 
 106   0.0000       2.454804        66.7986 
 107   0.0000       2.534158        68.9579 
 108   0.0000       2.542359        69.1811 
 109   0.0000       2.664464        72.5038 
 110   0.0000       2.724508        74.1376 
 111   0.0000       2.741961        74.6126 

                 SPIN DOWN ORBITALS
  NO   OCC          E(Eh)            E(eV) 
   0   1.0000     -10.167659      -276.6761 
   1   1.0000     -10.167220      -276.6641 
   2   1.0000     -10.164596      -276.5927 
   3   1.0000     -10.164524      -276.5908 
   4   1.0000     -10.164196      -276.5818 
   5   1.0000     -10.163192      -276.5545 
   6   1.0000      -0.803483       -21.8639 
   7   1.0000      -0.758207       -20.6319 
   8   1.0000      -0.695715       -18.9314 
   9   1.0000      -0.624335       -16.9890 
  10   1.0000      -0.570108       -15.5134 
  11   1.0000      -0.562166       -15.2973 
  12   1.0000      -0.472743       -12.8640 
  13   1.0000      -0.444698       -12.1008 
  14   1.0000      -0.435047       -11.8382 
  15   1.0000      -0.420099       -11.4315 
  16   1.0000      -0.404344       -11.0028 
  17   1.0000      -0.388792       -10.5796 
  18   1.0000      -0.361133        -9.8269 
  19   1.0000      -0.343510        -9.3474 
  20   1.0000      -0.337639        -9.1876 
  21   1.0000      -0.335324        -9.1246 
  22   1.0000      -0.327246        -8.9048 
  23   1.0000      -0.295854        -8.0506 
  24   1.0000      -0.290423        -7.9028 
  25   0.0000       0.046084         1.2540 
  26   0.0000       0.069178         1.8824 
  27   0.0000       0.074212         2.0194 
  28   0.0000       0.082020         2.2319 
  29   0.0000       0.108063         2.9405 
  30   0.0000       0.111132         3.0241 
  31   0.0000       0.120909         3.2901 
  32   0.0000       0.130323         3.5463 
  33   0.0000       0.137456         3.7404 
  34   0.0000       0.157213         4.2780 
  35   0.0000       0.162848         4.4313 
  36   0.0000       0.190918         5.1951 
  37   0.0000       0.196131         5.3370 
  38   0.0000       0.196922         5.3585 
  39   0.0000       0.220683         6.0051 
  40   0.0000       0.259845         7.0708 
  41   0.0000       0.262243         7.1360 
  42   0.0000       0.295600         8.0437 
  43   0.0000       0.315284         8.5793 
  44   0.0000       0.395645        10.7660 
  45   0.0000       0.422567        11.4986 
  46   0.0000       0.440822        11.9954 
  47   0.0000       0.465958        12.6794 
  48   0.0000       0.475812        12.9475 
  49   0.0000       0.492689        13.4067 
  50   0.0000       0.525776        14.3071 
  51   0.0000       0.538169        14.6443 
  52   0.0000       0.548648        14.9295 
  53   0.0000       0.604400        16.4466 
  54   0.0000       0.634616        17.2688 
  55   0.0000       0.642182        17.4747 
  56   0.0000       0.647039        17.6068 
  57   0.0000       0.651540        17.7293 
  58   0.0000       0.661035        17.9877 
  59   0.0000       0.670195        18.2369 
  60   0.0000       0.672297        18.2941 
  61   0.0000       0.685861        18.6632 
  62   0.0000       0.696575        18.9548 
  63   0.0000       0.700033        19.0489 
  64   0.0000       0.703598        19.1459 
  65   0.0000       0.715625        19.4731 
  66   0.0000       0.719615        19.5817 
  67   0.0000       0.727366        19.7926 
  68   0.0000       0.734375        19.9834 
  69   0.0000       0.737456        20.0672 
  70   0.0000       0.748108        20.3570 
  71   0.0000       0.750421        20.4200 
  72   0.0000       0.770941        20.9784 
  73   0.0000       0.777009        21.1435 
  74   0.0000       0.783590        21.3226 
  75   0.0000       0.828065        22.5328 
  76   0.0000       0.867606        23.6087 
  77   0.0000       0.920491        25.0478 
  78   0.0000       0.958796        26.0902 
  79   0.0000       1.140197        31.0263 
  80   0.0000       1.142735        31.0954 
  81   0.0000       1.197851        32.5952 
  82   0.0000       1.391555        37.8661 
  83   0.0000       1.396190        37.9923 
  84   0.0000       1.608993        43.7829 
  85   0.0000       1.643068        44.7102 
  86   0.0000       1.718719        46.7687 
  87   0.0000       1.810138        49.2564 
  88   0.0000       1.837523        50.0015 
  89   0.0000       1.850950        50.3669 
  90   0.0000       1.881114        51.1877 
  91   0.0000       1.907444        51.9042 
  92   0.0000       1.930583        52.5338 
  93   0.0000       1.947240        52.9871 
  94   0.0000       2.019779        54.9610 
  95   0.0000       2.026506        55.1440 
  96   0.0000       2.058907        56.0257 
  97   0.0000       2.085899        56.7602 
  98   0.0000       2.110037        57.4170 
  99   0.0000       2.154678        58.6318 
 100   0.0000       2.207748        60.0759 
 101   0.0000       2.261556        61.5401 
 102   0.0000       2.295575        62.4658 
 103   0.0000       2.305575        62.7379 
 104   0.0000       2.366910        64.4069 
 105   0.0000       2.433950        66.2312 
 106   0.0000       2.454804        66.7986 
 107   0.0000       2.534158        68.9579 
 108   0.0000       2.542359        69.1811 
 109   0.0000       2.664464        72.5038 
 110   0.0000       2.724508        74.1376 
 111   0.0000       2.741961        74.6126 

                    ********************************
                    * MULLIKEN POPULATION ANALYSIS *
                    ********************************

------------------------------------------
FOD BASED MULLIKEN REDUCED ORBITAL CHARGES
------------------------------------------
  0 C s       :    -0.000000  s :    -0.000000
      pz      :     0.000000  p :     0.000000
      px      :     0.000000
      py      :     0.000000
      dz2     :     0.000000  d :     0.000000
      dxz     :     0.000000
      dyz     :     0.000000
      dx2y2   :     0.000000
      dxy     :     0.000000
  1 C s       :    -0.000000  s :    -0.000000
      pz      :     0.000000  p :     0.000000
      px      :     0.000000
      py      :     0.000000
      dz2     :     0.000000  d :     0.000000
      dxz     :     0.000000
      dyz     :     0.000000
      dx2y2   :     0.000000
      dxy     :     0.000000
  2 C s       :    -0.000000  s :    -0.000000
      pz      :     0.000000  p :     0.000000
      px      :     0.000000
      py      :     0.000000
      dz2     :     0.000000  d :     0.000000
      dxz     :     0.000000
      dyz     :     0.000000
      dx2y2   :     0.000000
      dxy     :     0.000000
  3 C s       :    -0.000000  s :    -0.000000
      pz      :     0.000000  p :     0.000000
      px      :     0.000000
      py      :     0.000000
      dz2     :     0.000000  d :     0.000000
      dxz     :     0.000000
      dyz     :     0.000000
      dx2y2   :     0.000000
      dxy     :     0.000000
  4 C s       :    -0.000000  s :    -0.000000
      pz      :     0.000000  p :     0.000000
      px      :     0.000000
      py      :     0.000000
      dz2     :     0.000000  d :     0.000000
      dxz     :     0.000000
      dyz     :     0.000000
      dx2y2   :     0.000000
      dxy     :     0.000000
  5 C s       :    -0.000000  s :    -0.000000
      pz      :     0.000000  p :     0.000000
      px      :     0.000000
      py      :     0.000000
      dz2     :     0.000000  d :     0.000000
      dxz     :     0.000000
      dyz     :     0.000000
      dx2y2   :     0.000000
      dxy     :     0.000000
  6 H s       :     0.000000  s :     0.000000
  7 H s       :     0.000000  s :     0.000000
  8 H s       :     0.000000  s :     0.000000
  9 H s       :     0.000000  s :     0.000000
 10 H s       :     0.000000  s :     0.000000
 11 H s       :     0.000000  s :     0.000000
 12 H s       :     0.000000  s :     0.000000
 13 H s       :     0.000000  s :     0.000000
 14 H s       :     0.000000  s :     0.000000
 15 H s       :     0.000000  s :     0.000000
 16 H s       :     0.000000  s :     0.000000
 17 H s       :     0.000000  s :     0.000000
 18 H s       :     0.000000  s :     0.000000
 19 H s       :     0.000000  s :     0.000000


                     *******************************
                     * LOEWDIN POPULATION ANALYSIS *
                     *******************************

-------------------------------------------
LOEWDIN ATOMIC CHARGES AND SPIN POPULATIONS
-------------------------------------------
   0 C :   -0.318361    0.000000
   1 C :   -0.222038    0.000000
   2 C :   -0.213992    0.000000
   3 C :   -0.209961    0.000000
   4 C :   -0.222844    0.000000
   5 C :   -0.318466    0.000000
   6 H :    0.107678    0.000000
   7 H :    0.110155    0.000000
   8 H :    0.108979    0.000000
   9 H :    0.106050    0.000000
  10 H :    0.102871    0.000000
  11 H :    0.109090    0.000000
  12 H :    0.106294    0.000000
  13 H :    0.108142    0.000000
  14 H :    0.105871    0.000000
  15 H :    0.106893    0.000000
  16 H :    0.106687    0.000000
  17 H :    0.107498    0.000000
  18 H :    0.107587    0.000000
  19 H :    0.111866    0.000000

----------------------------------------------------
LOEWDIN REDUCED ORBITAL CHARGES AND SPIN POPULATIONS
----------------------------------------------------
CHARGE
  0 C s       :     2.956003  s :     2.956003
      pz      :     1.088740  p :     3.287929
      px      :     1.096110
      py      :     1.103079
      dz2     :     0.018063  d :     0.074429
      dxz     :     0.016876
      dyz     :     0.011893
      dx2y2   :     0.012934
      dxy     :     0.014664
  1 C s       :     2.909481  s :     2.909481
      pz      :     1.079091  p :     3.219775
      px      :     1.070715
      py      :     1.069969
      dz2     :     0.019375  d :     0.092782
      dxz     :     0.026777
      dyz     :     0.007883
      dx2y2   :     0.013668
      dxy     :     0.025080
  2 C s       :     2.905619  s :     2.905619
      pz      :     1.086332  p :     3.215280
      px      :     1.056281
      py      :     1.072667
      dz2     :     0.013510  d :     0.093093
      dxz     :     0.011414
      dyz     :     0.025402
      dx2y2   :     0.019808
      dxy     :     0.022959
  3 C s       :     2.906615  s :     2.906615
      pz      :     1.069417  p :     3.209845
      px      :     1.058086
      py      :     1.082342
      dz2     :     0.015794  d :     0.093501
      dxz     :     0.022928
      dyz     :     0.019778
      dx2y2   :     0.022374
      dxy     :     0.012627
  4 C s       :     2.906885  s :     2.906885
      pz      :     1.069874  p :     3.223990
      px      :     1.077436
      py      :     1.076679
      dz2     :     0.019549  d :     0.091969
      dxz     :     0.021049
      dyz     :     0.016016
      dx2y2   :     0.010555
      dxy     :     0.024801
  5 C s       :     2.958544  s :     2.958544
      pz      :     1.108633  p :     3.285618
      px      :     1.097832
      py      :     1.079153
      dz2     :     0.007570  d :     0.074304
      dxz     :     0.015996
      dyz     :     0.020033
      dx2y2   :     0.016849
      dxy     :     0.013856
  6 H s       :     0.892322  s :     0.892322
  7 H s       :     0.889845  s :     0.889845
  8 H s       :     0.891021  s :     0.891021
  9 H s       :     0.893950  s :     0.893950
 10 H s       :     0.897129  s :     0.897129
 11 H s       :     0.890910  s :     0.890910
 12 H s       :     0.893706  s :     0.893706
 13 H s       :     0.891858  s :     0.891858
 14 H s       :     0.894129  s :     0.894129
 15 H s       :     0.893107  s :     0.893107
 16 H s       :     0.893313  s :     0.893313
 17 H s       :     0.892502  s :     0.892502
 18 H s       :     0.892413  s :     0.892413
 19 H s       :     0.888134  s :     0.888134

SPIN
  0 C s       :     0.000000  s :     0.000000
      pz      :     0.000000  p :     0.000000
      px      :     0.000000
      py      :     0.000000
      dz2     :     0.000000  d :     0.000000
      dxz     :     0.000000
      dyz     :     0.000000
      dx2y2   :     0.000000
      dxy     :     0.000000
  1 C s       :     0.000000  s :     0.000000
      pz      :     0.000000  p :     0.000000
      px      :     0.000000
      py      :     0.000000
      dz2     :     0.000000  d :     0.000000
      dxz     :     0.000000
      dyz     :     0.000000
      dx2y2   :     0.000000
      dxy     :     0.000000
  2 C s       :     0.000000  s :     0.000000
      pz      :     0.000000  p :     0.000000
      px      :     0.000000
      py      :     0.000000
      dz2     :     0.000000  d :     0.000000
      dxz     :     0.000000
      dyz     :     0.000000
      dx2y2   :     0.000000
      dxy     :     0.000000
  3 C s       :     0.000000  s :     0.000000
      pz      :     0.000000  p :     0.000000
      px      :     0.000000
      py      :     0.000000
      dz2     :     0.000000  d :     0.000000
      dxz     :     0.000000
      dyz     :     0.000000
      dx2y2   :     0.000000
      dxy     :     0.000000
  4 C s       :     0.000000  s :     0.000000
      pz      :     0.000000  p :     0.000000
      px      :     0.000000
      py      :     0.000000
      dz2     :     0.000000  d :     0.000000
      dxz     :     0.000000
      dyz     :     0.000000
      dx2y2   :     0.000000
      dxy     :     0.000000
  5 C s       :     0.000000  s :     0.000000
      pz      :     0.000000  p :     0.000000
      px      :     0.000000
      py      :     0.000000
      dz2     :     0.000000  d :     0.000000
      dxz     :     0.000000
      dyz     :     0.000000
      dx2y2   :     0.000000
      dxy     :     0.000000
  6 H s       :     0.000000  s :     0.000000
  7 H s       :     0.000000  s :     0.000000
  8 H s       :     0.000000  s :     0.000000
  9 H s       :     0.000000  s :     0.000000
 10 H s       :     0.000000  s :     0.000000
 11 H s       :     0.000000  s :     0.000000
 12 H s       :     0.000000  s :     0.000000
 13 H s       :     0.000000  s :     0.000000
 14 H s       :     0.000000  s :     0.000000
 15 H s       :     0.000000  s :     0.000000
 16 H s       :     0.000000  s :     0.000000
 17 H s       :     0.000000  s :     0.000000
 18 H s       :     0.000000  s :     0.000000
 19 H s       :     0.000000  s :     0.000000


                      *****************************
                      * MAYER POPULATION ANALYSIS *
                      *****************************

  NA   - Mulliken gross atomic population
  ZA   - Total nuclear charge
  QA   - Mulliken gross atomic charge
  VA   - Mayer's total valence
  BVA  - Mayer's bonded valence
  FA   - Mayer's free valence

  ATOM       NA         ZA         QA         VA         BVA        FA
  0 C      6.2704     6.0000    -0.2704     4.0312     4.0312    -0.0000
  1 C      6.1674     6.0000    -0.1674     4.1194     4.1194     0.0000
  2 C      6.1328     6.0000    -0.1328     4.0839     4.0839     0.0000
  3 C      6.1548     6.0000    -0.1548     4.0948     4.0948     0.0000
  4 C      6.1437     6.0000    -0.1437     4.0950     4.0950     0.0000
  5 C      6.2863     6.0000    -0.2863     4.0279     4.0279     0.0000
  6 H      0.9155     1.0000     0.0845     0.9510     0.9510     0.0000
  7 H      0.9062     1.0000     0.0938     0.9535     0.9535     0.0000
  8 H      0.9064     1.0000     0.0936     0.9582     0.9582     0.0000
  9 H      0.9276     1.0000     0.0724     0.9447     0.9447     0.0000
 10 H      0.9231     1.0000     0.0769     0.9554     0.9554     0.0000
 11 H      0.9364     1.0000     0.0636     0.9447     0.9447     0.0000
 12 H      0.9168     1.0000     0.0832     0.9631     0.9631     0.0000
 13 H      0.9326     1.0000     0.0674     0.9449     0.9449     0.0000
 14 H      0.9155     1.0000     0.0845     0.9615     0.9615     0.0000
 15 H      0.9155     1.0000     0.0845     0.9550     0.9550     0.0000
 16 H      0.9285     1.0000     0.0715     0.9436     0.9436     0.0000
 17 H      0.9100     1.0000     0.0900     0.9521     0.9521     0.0000
 18 H      0.9042     1.0000     0.0958     0.9576     0.9576     0.0000
 19 H      0.9059     1.0000     0.0941     0.9532     0.9532     0.0000

  Mayer bond orders larger than 0.100000
B(  0-C ,  1-C ) :   1.1357 B(  0-C ,  6-H ) :   0.9608 B(  0-C ,  7-H ) :   0.9616 
B(  0-C ,  8-H ) :   0.9618 B(  1-C ,  2-C ) :   1.0863 B(  1-C ,  9-H ) :   0.9417 
B(  1-C , 10-H ) :   0.9422 B(  2-C ,  3-C ) :   1.1061 B(  2-C , 11-H ) :   0.9255 
B(  2-C , 12-H ) :   0.9456 B(  3-C ,  4-C ) :   1.0809 B(  3-C , 13-H ) :   0.9278 
B(  3-C , 14-H ) :   0.9443 B(  4-C ,  5-C ) :   1.1232 B(  4-C , 15-H ) :   0.9451 
B(  4-C , 16-H ) :   0.9412 B(  5-C , 17-H ) :   0.9596 B(  5-C , 18-H ) :   0.9654 
B(  5-C , 19-H ) :   0.9614 

-------
TIMINGS
-------

Total SCF time: 0 days 0 hours 6 min 38 sec 

Total time                  ....     398.228 sec
Sum of individual times     ....     325.815 sec  ( 81.8%)

Fock matrix formation       ....     282.557 sec  ( 71.0%)
  XC integration            ....     128.416 sec  ( 45.4% of F)
    Basis function eval.    ....       1.703 sec  (  1.3% of XC)
    Density eval.           ....       1.393 sec  (  1.1% of XC)
    XC-Functional eval.     ....       0.382 sec  (  0.3% of XC)
    XC-Potential eval.      ....       1.842 sec  (  1.4% of XC)
Diagonalization             ....       0.102 sec  (  0.0%)
Density matrix formation    ....      22.889 sec  (  5.7%)
Population analysis         ....       3.122 sec  (  0.8%)
Initial guess               ....       0.341 sec  (  0.1%)
Orbital Transformation      ....       0.000 sec  (  0.0%)
Orbital Orthonormalization  ....       0.000 sec  (  0.0%)
DIIS solution               ....      12.750 sec  (  3.2%)
Grid generation             ....       4.054 sec  (  1.0%)


-------------------------------------------------------------------------------
                          DFT DISPERSION CORRECTION                            
                                                                               
                              DFTD3 V3.1  Rev 1                                
                          USING Becke-Johnson damping                          
-------------------------------------------------------------------------------
The B3LYP functional is recognized
Active option DFTDOPT                   ...         4   

molecular C6(AA) [au] = 2518.202787 


            DFT-D V3
 parameters
 s6 scaling factor         :     1.0000 
 a1 scaling factor         :     0.3981 
 s8 scaling factor         :     1.9889 
 a2 scaling factor         :     4.4211 
 ad hoc parameters k1-k3   :    16.0000     1.3333    -4.0000 

 Edisp/kcal,au: -15.884587261296  -0.025313698396 
 E6   /kcal   :  -8.008454161 
 E8   /kcal   :  -7.876133100 
 % E8         :  49.583492290 

-------------------------   ----------------
Dispersion correction           -0.025313698
-------------------------   ----------------


-------------------------   --------------------
FINAL SINGLE POINT ENERGY      -236.687436614686
-------------------------   --------------------

------------------------------------------------------------------------------
                         ORCA SCF GRADIENT CALCULATION
------------------------------------------------------------------------------

Gradient of the Kohn-Sham DFT energy:
Kohn-Sham wavefunction type      ... UKS
Hartree-Fock exchange scaling    ...    0.200
Number of operators              ...    2
Number of atoms                  ...   20
Basis set dimensions             ...  112
Integral neglect threshold       ... 1.0e-12
Integral primitive cutoff        ... 1.0e-14

Nuclear repulsion gradient       ... done
One Electron Gradient            ... done
Pre-screening matrix             ... done
Starting the two electron gradient:
Two electron gradient done
Exchange-correlation gradient    ... done
Dispersion correction            ... done

------------------
CARTESIAN GRADIENT
------------------

   1   C   :   -0.018971082    0.006908175    0.004624672
   2   C   :   -0.016242475    0.024946840   -0.000615525
   3   C   :   -0.010343275   -0.019059891    0.028914589
   4   C   :    0.003571264   -0.019334018    0.025513888
   5   C   :    0.034034994    0.002618901   -0.006264513
   6   C   :    0.012113924    0.005060764   -0.001994804
   7   H   :    0.003612032   -0.002842789   -0.006336099
   8   H   :    0.001768657   -0.007394666   -0.004476236
   9   H   :   -0.001065881    0.007578531   -0.007795275
  10   H   :    0.009486201   -0.003290475   -0.002176406
  11   H   :   -0.006370310   -0.005764776    0.000319907
  12   H   :    0.001807734   -0.000702474   -0.008333692
  13   H   :    0.003195079    0.000064748    0.001595081
  14   H   :   -0.003886398    0.005162059   -0.003331853
  15   H   :    0.004191153   -0.007445372   -0.003967569
  16   H   :   -0.001445853    0.001783298    0.001465294
  17   H   :   -0.010369784   -0.001133770    0.001857009
  18   H   :   -0.011186489    0.006072290   -0.004267398
  19   H   :    0.001905756   -0.002308705   -0.009786935
  20   H   :    0.004194754    0.009081331   -0.004944134

Difference to translation invariance:
           :   -0.0000000000    0.0000000000    0.0000000000

Norm of the cartesian gradient     ...    0.0789611108
RMS gradient                       ...    0.0101938356
MAX gradient                       ...    0.0340349941

-------
TIMINGS
-------

Total SCF gradient time            ...       11.415 sec

One electron gradient       ....       0.074 sec  (  0.6%)
Prescreening matrices       ....       0.039 sec  (  0.3%)
Two electron gradient       ....       4.732 sec  ( 41.4%)
XC gradient                 ....       5.593 sec  ( 49.0%)
------------------------------------------------------------------------------
                         ORCA GEOMETRY RELAXATION STEP
------------------------------------------------------------------------------

Reading the OPT-File                    .... done
Getting information on internals        .... done
Copying old internal coords+grads       .... done
Making the new internal coordinates     .... (new redundants).... done
Validating the new internal coordinates .... (new redundants).... done
Calculating the B-matrix                .... done
Calculating the G,G- and P matrices     .... done
Transforming gradient to internals      .... done
Projecting the internal gradient        .... done
Number of atoms                         ....  20
Number of internal coordinates          .... 100
Current Energy                          ....  -236.687436615 Eh
Current gradient norm                   ....     0.078961111 Eh/bohr
Maximum allowed component of the step   ....  0.300
Current trust radius                    ....  0.300
Evaluating the initial hessian          ....  (Almloef) done
Projecting the Hessian                  .... done
Forming the augmented Hessian           .... done
Diagonalizing the augmented Hessian     .... done
Last element of RFO vector              ....  0.941597461
Lowest eigenvalues of augmented Hessian:
 -0.024241587  0.011843520  0.012478237  0.013423605  0.013489439
Length of the computed step             ....  0.357626905
Warning: the length of the step is outside the trust region - taking restricted step instead
The input lambda is                     ....    -0.024242
   iter:   1  x=   -0.035349  g=    3.411756 f(x)=     0.037897
   iter:   2  x=   -0.040972  g=    1.824468 f(x)=     0.010258
   iter:   3  x=   -0.041802  g=    1.429160 f(x)=     0.001186
   iter:   4  x=   -0.041816  g=    1.382839 f(x)=     0.000019
   iter:   5  x=   -0.041816  g=    1.382077 f(x)=     0.000000
   iter:   6  x=   -0.041816  g=    1.382077 f(x)=     0.000000
The output lambda is                    ....    -0.041816 (6 iterations)
The final length of the internal step   ....  0.300000000
Converting the step to cartesian space:
 Initial RMS(Int)=    0.0300000000
Transforming coordinates:
 Iter   0:  RMS(Cart)=    0.0966461483 RMS(Int)=    0.0298828064
 Iter   1:  RMS(Cart)=    0.0021454961 RMS(Int)=    0.0011322455
 Iter   2:  RMS(Cart)=    0.0001350956 RMS(Int)=    0.0000547215
 Iter   3:  RMS(Cart)=    0.0000068479 RMS(Int)=    0.0000048237
 Iter   4:  RMS(Cart)=    0.0000004276 RMS(Int)=    0.0000002753
 Iter   5:  RMS(Cart)=    0.0000000335 RMS(Int)=    0.0000000239
done
Storing new coordinates                 .... done

                                .--------------------.
          ----------------------|Geometry convergence|-------------------------
          Item                value                   Tolerance       Converged
          ---------------------------------------------------------------------
          RMS gradient        0.0088774214            0.0001000000      NO
          MAX gradient        0.0339133778            0.0003000000      NO
          RMS step            0.0300000000            0.0020000000      NO
          MAX step            0.0842429229            0.0040000000      NO
          ........................................................
          Max(Bonds)      0.0396      Max(Angles)    4.83
          Max(Dihed)        3.59      Max(Improp)    0.00
          ---------------------------------------------------------------------

The optimization has not yet converged - more geometry cycles are needed


    ---------------------------------------------------------------------------
                         Redundant Internal Coordinates
                            (Angstroem and degrees)

        Definition                    Value    dE/dq     Step     New-Value
    ----------------------------------------------------------------------------
     1. B(C   1,C   0)                1.5201 -0.019699  0.0243    1.5443   
     2. B(C   2,C   1)                1.5035 -0.033913  0.0396    1.5431   
     3. B(C   3,C   2)                1.5059 -0.031197  0.0367    1.5426   
     4. B(C   4,C   3)                1.5028 -0.033621  0.0391    1.5420   
     5. B(C   5,C   4)                1.5226 -0.023816  0.0296    1.5522   
     6. B(H   6,C   0)                1.1155  0.005558 -0.0080    1.1075   
     7. B(H   7,C   0)                1.1032 -0.000748  0.0010    1.1042   
     8. B(H   8,C   0)                1.1118  0.005421 -0.0077    1.1041   
     9. B(H   9,C   1)                1.1188  0.007975 -0.0115    1.1072   
    10. B(H  10,C   1)                1.1190  0.008237 -0.0119    1.1071   
    11. B(H  11,C   2)                1.1197  0.006974 -0.0101    1.1096   
    12. B(H  12,C   2)                1.1058  0.001751 -0.0024    1.1034   
    13. B(H  13,C   3)                1.1184  0.006969 -0.0101    1.1084   
    14. B(H  14,C   3)                1.1147  0.008279 -0.0118    1.1029   
    15. B(H  15,C   4)                1.1051  0.001084 -0.0015    1.1036   
    16. B(H  16,C   4)                1.1188  0.007373 -0.0107    1.1081   
    17. B(H  17,C   5)                1.1187  0.008813 -0.0127    1.1059   
    18. B(H  18,C   5)                1.1178  0.009151 -0.0132    1.1046   
    19. B(H  19,C   5)                1.0991 -0.004277  0.0058    1.1049   
    20. A(H   7,C   0,H   8)          113.39  0.009549   -2.22    111.18   
    21. A(C   1,C   0,H   7)          112.65  0.000462   -0.19    112.46   
    22. A(C   1,C   0,H   6)          108.76 -0.007579    1.54    110.30   
    23. A(H   6,C   0,H   7)          106.52  0.002324   -0.08    106.43   
    24. A(H   6,C   0,H   8)          107.65  0.005983   -0.58    107.07   
    25. A(C   1,C   0,H   8)          107.67 -0.010859    1.62    109.30   
    26. A(C   2,C   1,H  10)          110.08  0.002630   -0.49    109.59   
    27. A(C   0,C   1,H  10)          109.59  0.005279   -0.74    108.85   
    28. A(C   2,C   1,H   9)          112.92  0.007037   -1.20    111.73   
    29. A(C   0,C   1,H   9)          106.25 -0.000446    0.62    106.87   
    30. A(H   9,C   1,H  10)          105.45 -0.001467   -0.37    105.08   
    31. A(C   0,C   1,C   2)          112.25 -0.012339    2.05    114.30   
    32. A(H  11,C   2,H  12)          105.91 -0.000612   -0.68    105.23   
    33. A(C   1,C   2,C   3)          112.95 -0.013182    2.16    115.11   
    34. A(C   3,C   2,H  11)          108.11  0.002515    0.21    108.32   
    35. A(C   1,C   2,H  11)          106.56 -0.000034    0.97    107.53   
    36. A(C   1,C   2,H  12)          110.48  0.004787   -1.02    109.46   
    37. A(C   3,C   2,H  12)          112.39  0.006910   -1.65    110.74   
    38. A(C   2,C   3,C   4)          113.64 -0.008452    1.41    115.05   
    39. A(H  13,C   3,H  14)          105.22 -0.000452   -0.43    104.79   
    40. A(C   4,C   3,H  14)          112.98  0.007786   -1.66    111.32   
    41. A(C   2,C   3,H  14)          107.49 -0.000985    0.20    107.69   
    42. A(C   4,C   3,H  13)          107.82 -0.001273    0.63    108.45   
    43. A(C   2,C   3,H  13)          109.33  0.004025   -0.28    109.05   
    44. A(H  15,C   4,H  16)          105.61 -0.004827   -0.38    105.23   
    45. A(C   5,C   4,H  16)          105.22  0.003057    0.94    106.16   
    46. A(C   3,C   4,H  16)          111.44  0.008468   -0.90    110.54   
    47. A(C   5,C   4,H  15)          111.69  0.011847   -1.92    109.77   
    48. A(C   3,C   4,H  15)          113.80  0.012197   -2.52    111.28   
    49. A(C   3,C   4,C   5)          108.73 -0.029998    4.83    113.55   
    50. A(C   4,C   5,H  17)          111.26 -0.004752    0.70    111.95   
    51. A(H  18,C   5,H  19)          108.24  0.006002   -0.71    107.53   
    52. A(H  17,C   5,H  19)          113.28  0.011604   -2.40    110.88   
    53. A(C   4,C   5,H  19)          108.07 -0.011668    1.79    109.86   
    54. A(H  17,C   5,H  18)          106.83  0.003425   -0.33    106.50   
    55. A(C   4,C   5,H  18)          109.06 -0.004548    0.99    110.05   
    56. D(H   9,C   1,C   0,H   8)     87.81 -0.000961   -0.34     87.47   
    57. D(H  10,C   1,C   0,H   7)    -32.95  0.004124   -2.58    -35.53   
    58. D(H   9,C   1,C   0,H   7)   -146.42  0.003565   -2.12   -148.54   
    59. D(H  10,C   1,C   0,H   8)   -158.72 -0.000402   -0.80   -159.52   
    60. D(H   9,C   1,C   0,H   6)    -28.57  0.001791   -1.33    -29.90   
    61. D(C   2,C   1,C   0,H   8)    -36.08 -0.001717   -0.56    -36.64   
    62. D(C   2,C   1,C   0,H   7)     89.69  0.002809   -2.33     87.36   
    63. D(C   2,C   1,C   0,H   6)   -152.46  0.001034   -1.55   -154.01   
    64. D(H  10,C   1,C   0,H   6)     84.90  0.002350   -1.80     83.10   
    65. D(H  11,C   2,C   1,H   9)     -1.34  0.005185   -2.17     -3.51   
    66. D(C   3,C   2,C   1,H  10)     -0.34 -0.003620    1.49      1.15   
    67. D(C   3,C   2,C   1,C   0)   -122.70 -0.003737    1.38   -121.32   
    68. D(H  11,C   2,C   1,C   0)    118.75  0.000701   -0.74    118.01   
    69. D(H  11,C   2,C   1,H  10)   -118.89  0.000818   -0.62   -119.52   
    70. D(H  12,C   2,C   1,H  10)    126.50 -0.000827    0.16    126.66   
    71. D(H  12,C   2,C   1,H   9)   -115.94  0.003540   -1.40   -117.34   
    72. D(H  12,C   2,C   1,C   0)      4.14 -0.000944    0.04      4.18   
    73. D(C   3,C   2,C   1,H   9)    117.22  0.000747   -0.06    117.16   
    74. D(H  14,C   3,C   2,H  11)     94.50 -0.002985    0.03     94.52   
    75. D(H  14,C   3,C   2,C   1)    -23.15  0.003214   -2.59    -25.74   
    76. D(H  13,C   3,C   2,H  12)     97.31  0.000819   -1.07     96.23   
    77. D(H  13,C   3,C   2,H  11)    -19.22 -0.003948    0.56    -18.66   
    78. D(H  13,C   3,C   2,C   1)   -136.87  0.002252   -2.05   -138.92   
    79. D(C   4,C   3,C   2,H  11)   -139.72  0.000423   -0.98   -140.70   
    80. D(C   4,C   3,C   2,H  12)    -23.20  0.005189   -2.62    -25.81   
    81. D(H  14,C   3,C   2,H  12)   -148.98  0.001781   -1.61   -150.59   
    82. D(C   4,C   3,C   2,C   1)    102.63  0.006622   -3.59     99.04   
    83. D(H  15,C   4,C   3,C   2)      4.92 -0.002151    0.96      5.88   
    84. D(C   5,C   4,C   3,H  14)      2.55 -0.004979    1.63      4.18   
    85. D(C   5,C   4,C   3,H  13)    118.39 -0.001949    0.56    118.95   
    86. D(C   5,C   4,C   3,C   2)   -120.26 -0.003186    1.56   -118.70   
    87. D(H  16,C   4,C   3,H  14)   -112.98  0.004456   -1.89   -114.87   
    88. D(H  16,C   4,C   3,H  13)      2.86  0.007486   -2.96     -0.09   
    89. D(H  16,C   4,C   3,C   2)    124.21  0.006249   -1.95    122.26   
    90. D(H  15,C   4,C   3,H  14)    127.73 -0.003944    1.03    128.76   
    91. D(H  15,C   4,C   3,H  13)   -116.43 -0.000914   -0.04   -116.47   
    92. D(H  19,C   5,C   4,H  16)   -150.35 -0.001783   -0.21   -150.56   
    93. D(H  19,C   5,C   4,H  15)    -36.25 -0.000120   -1.06    -37.30   
    94. D(H  19,C   5,C   4,C   3)     90.16  0.001775   -2.10     88.06   
    95. D(H  18,C   5,C   4,H  16)     92.20  0.000077   -0.91     91.29   
    96. D(H  18,C   5,C   4,H  15)   -153.70  0.001741   -1.75   -155.45   
    97. D(H  18,C   5,C   4,C   3)    -27.29  0.003635   -2.79    -30.08   
    98. D(H  17,C   5,C   4,H  16)    -25.39  0.001513   -1.53    -26.91   
    99. D(H  17,C   5,C   4,H  15)     88.72  0.003177   -2.37     86.34   
   100. D(H  17,C   5,C   4,C   3)   -144.88  0.005071   -3.42   -148.29   
    ----------------------------------------------------------------------------

Time needed for optimization step       :     2.41 sec

         *************************************************************
         *                GEOMETRY OPTIMIZATION CYCLE   2            *
         *************************************************************
---------------------------------
CARTESIAN COORDINATES (ANGSTROEM)
---------------------------------
  C      2.454939   -0.339308    0.659331
  C      1.613491   -0.341471   -0.635650
  C      0.641819    0.850397   -0.763432
  C     -0.846095    0.469032   -0.906230
  C     -1.669239    0.552946    0.394960
  C     -2.276532   -0.806562    0.833351
  H      3.402974   -0.889796    0.502030
  H      1.939325   -0.838723    1.498341
  H      2.723483    0.699986    0.917902
  H      2.326158   -0.381301   -1.482096
  H      1.046269   -1.290518   -0.692113
  H      0.940301    1.429200   -1.661808
  H      0.789250    1.538147    0.086743
  H     -1.317336    1.128406   -1.662287
  H     -0.892632   -0.541449   -1.345737
  H     -1.072930    0.979983    1.219561
  H     -2.524899    1.245235    0.266670
  H     -3.241000   -0.678135    1.359059
  H     -2.483607   -1.432008   -0.053288
  H     -1.553737   -1.354061    1.464690

----------------------------
CARTESIAN COORDINATES (A.U.)
----------------------------
  NO LB      ZA    FRAG     MASS         X           Y           Z
   0 C     6.0000    0    12.011    4.639162   -0.641199    1.245956
   1 C     6.0000    0    12.011    3.049055   -0.645287   -1.201205
   2 C     6.0000    0    12.011    1.212861    1.607017   -1.442678
   3 C     6.0000    0    12.011   -1.598889    0.886343   -1.712527
   4 C     6.0000    0    12.011   -3.154404    1.044917    0.746366
   5 C     6.0000    0    12.011   -4.302022   -1.524181    1.574805
   6 H     1.0000    0     1.008    6.430690   -1.681470    0.948700
   7 H     1.0000    0     1.008    3.664792   -1.584956    2.831454
   8 H     1.0000    0     1.008    5.146637    1.322782    1.734584
   9 H     1.0000    0     1.008    4.395802   -0.720554   -2.800755
  10 H     1.0000    0     1.008    1.977161   -2.438726   -1.307903
  11 H     1.0000    0     1.008    1.776911    2.700797   -3.140362
  12 H     1.0000    0     1.008    1.491466    2.906676    0.163921
  13 H     1.0000    0     1.008   -2.489404    2.132378   -3.141267
  14 H     1.0000    0     1.008   -1.686831   -1.023190   -2.543075
  15 H     1.0000    0     1.008   -2.027544    1.851899    2.304636
  16 H     1.0000    0     1.008   -4.771369    2.353154    0.503933
  17 H     1.0000    0     1.008   -6.124603   -1.281489    2.568249
  18 H     1.0000    0     1.008   -4.693338   -2.706103   -0.100699
  19 H     1.0000    0     1.008   -2.936138   -2.558804    2.767863

--------------------------------
INTERNAL COORDINATES (ANGSTROEM)
--------------------------------
 C      0   0   0     0.000000000000     0.00000000     0.00000000
 C      1   0   0     1.544349986816     0.00000000     0.00000000
 C      2   1   0     1.543056671738   114.29636012     0.00000000
 C      3   2   1     1.542633461214   115.09265211   238.68481045
 C      4   3   2     1.541979830078   115.04441646    99.03050789
 C      5   4   3     1.552177480435   113.54859692   241.31643811
 H      1   2   3     1.107498136154   110.28012310   205.97171344
 H      1   2   3     1.104178377078   112.46337316    87.34703389
 H      1   2   3     1.104131526556   109.28138530   323.36628215
 H      2   1   3     1.107227009856   106.88106739   124.12429521
 H      2   1   3     1.107076924888   108.85226944   237.12083799
 H      3   2   1     1.109587230043   107.49199065   117.98793083
 H      3   2   1     1.103419656366   109.48081503     4.17817584
 H      4   3   2     1.108360311846   109.03588530   221.07064461
 H      4   3   2     1.102907134622   107.70313836   334.24982896
 H      5   4   3     1.103589794213   111.29277893     5.86377359
 H      5   4   3     1.108096598778   110.39651221   122.28185338
 H      6   5   4     1.105921167995   111.94740863   211.66997605
 H      6   5   4     1.104622782670   110.03352491   329.87534934
 H      6   5   4     1.104887234734   109.84351717    88.03114258

---------------------------
INTERNAL COORDINATES (A.U.)
---------------------------
 C      0   0   0     0.000000000000     0.00000000     0.00000000
 C      1   0   0     2.918398530007     0.00000000     0.00000000
 C      2   1   0     2.915954518705   114.29636012     0.00000000
 C      3   2   1     2.915154766717   115.09265211   238.68481045
 C      4   3   2     2.913919582878   115.04441646    99.03050789
 C      5   4   3     2.933190349261   113.54859692   241.31643811
 H      1   2   3     2.092868171160   110.28012310   205.97171344
 H      1   2   3     2.086594735676   112.46337316    87.34703389
[...]
  32   0.0000       0.138467         3.7679 
  33   0.0000       0.141805         3.8587 
  34   0.0000       0.149031         4.0553 
  35   0.0000       0.153720         4.1829 
  36   0.0000       0.161219         4.3870 
  37   0.0000       0.187289         5.0964 
  38   0.0000       0.198239         5.3944 
  39   0.0000       0.220604         6.0029 
  40   0.0000       0.236409         6.4330 
  41   0.0000       0.249981         6.8023 
  42   0.0000       0.278981         7.5915 
  43   0.0000       0.290818         7.9136 
  44   0.0000       0.419614        11.4183 
  45   0.0000       0.424726        11.5574 
  46   0.0000       0.434976        11.8363 
  47   0.0000       0.450182        12.2501 
  48   0.0000       0.473337        12.8802 
  49   0.0000       0.490536        13.3482 
  50   0.0000       0.499343        13.5878 
  51   0.0000       0.527866        14.3640 
  52   0.0000       0.551361        15.0033 
  53   0.0000       0.594685        16.1822 
  54   0.0000       0.614836        16.7305 
  55   0.0000       0.621753        16.9188 
  56   0.0000       0.648746        17.6533 
  57   0.0000       0.663724        18.0608 
  58   0.0000       0.671242        18.2654 
  59   0.0000       0.685758        18.6604 
  60   0.0000       0.698180        18.9984 
  61   0.0000       0.698713        19.0130 
  62   0.0000       0.702695        19.1213 
  63   0.0000       0.707280        19.2461 
  64   0.0000       0.711950        19.3731 
  65   0.0000       0.717039        19.5116 
  66   0.0000       0.719819        19.5873 
  67   0.0000       0.722599        19.6629 
  68   0.0000       0.726558        19.7706 
  69   0.0000       0.734898        19.9976 
  70   0.0000       0.749267        20.3886 
  71   0.0000       0.760949        20.7065 
  72   0.0000       0.773311        21.0428 
  73   0.0000       0.793287        21.5864 
  74   0.0000       0.821918        22.3655 
  75   0.0000       0.855233        23.2721 
  76   0.0000       0.875722        23.8296 
  77   0.0000       0.901637        24.5348 
  78   0.0000       0.977276        26.5930 
  79   0.0000       1.051467        28.6119 
  80   0.0000       1.126570        30.6555 
  81   0.0000       1.148794        31.2603 
  82   0.0000       1.408053        38.3151 
  83   0.0000       1.442618        39.2556 
  84   0.0000       1.566157        42.6173 
  85   0.0000       1.619375        44.0654 
  86   0.0000       1.648885        44.8685 
  87   0.0000       1.780559        48.4515 
  88   0.0000       1.827324        49.7240 
  89   0.0000       1.849031        50.3147 
  90   0.0000       1.882578        51.2276 
  91   0.0000       1.898904        51.6718 
  92   0.0000       1.927362        52.4462 
  93   0.0000       1.967970        53.5512 
  94   0.0000       1.982657        53.9508 
  95   0.0000       2.019144        54.9437 
  96   0.0000       2.026319        55.1389 
  97   0.0000       2.092351        56.9358 
  98   0.0000       2.123435        57.7816 
  99   0.0000       2.149769        58.4982 
 100   0.0000       2.219714        60.4015 
 101   0.0000       2.261971        61.5514 
 102   0.0000       2.289806        62.3088 
 103   0.0000       2.297056        62.5061 
 104   0.0000       2.310452        62.8706 
 105   0.0000       2.365136        64.3586 
 106   0.0000       2.369717        64.4833 
 107   0.0000       2.511643        68.3453 
 108   0.0000       2.557253        69.5864 
 109   0.0000       2.640014        71.8384 
 110   0.0000       2.679929        72.9246 
 111   0.0000       2.716649        73.9238 

                    ********************************
                    * MULLIKEN POPULATION ANALYSIS *
                    ********************************

------------------------------------------
FOD BASED MULLIKEN REDUCED ORBITAL CHARGES
------------------------------------------
  0 C s       :    -0.000000  s :    -0.000000
      pz      :     0.000000  p :     0.000000
      px      :     0.000000
      py      :     0.000000
      dz2     :     0.000000  d :     0.000000
      dxz     :     0.000000
      dyz     :     0.000000
      dx2y2   :     0.000000
      dxy     :     0.000000
  1 C s       :    -0.000000  s :    -0.000000
      pz      :     0.000000  p :     0.000000
      px      :     0.000000
      py      :     0.000000
      dz2     :     0.000000  d :     0.000000
      dxz     :     0.000000
      dyz     :     0.000000
      dx2y2   :     0.000000
      dxy     :     0.000000
  2 C s       :    -0.000000  s :    -0.000000
      pz      :     0.000000  p :     0.000000
      px      :     0.000000
      py      :     0.000000
      dz2     :     0.000000  d :     0.000000
      dxz     :     0.000000
      dyz     :     0.000000
      dx2y2   :     0.000000
      dxy     :     0.000000
  3 C s       :    -0.000000  s :    -0.000000
      pz      :     0.000000  p :     0.000000
      px      :     0.000000
      py      :     0.000000
      dz2     :     0.000000  d :     0.000000
      dxz     :     0.000000
      dyz     :     0.000000
      dx2y2   :     0.000000
      dxy     :     0.000000
  4 C s       :    -0.000000  s :    -0.000000
      pz      :     0.000000  p :     0.000000
      px      :     0.000000
      py      :     0.000000
      dz2     :     0.000000  d :     0.000000
      dxz     :     0.000000
      dyz     :     0.000000
      dx2y2   :     0.000000
      dxy     :     0.000000
  5 C s       :    -0.000000  s :    -0.000000
      pz      :     0.000000  p :     0.000000
      px      :     0.000000
      py      :     0.000000
      dz2     :     0.000000  d :     0.000000
      dxz     :     0.000000
      dyz     :     0.000000
      dx2y2   :     0.000000
      dxy     :     0.000000
  6 H s       :     0.000000  s :     0.000000
  7 H s       :     0.000000  s :     0.000000
  8 H s       :     0.000000  s :     0.000000
  9 H s       :     0.000000  s :     0.000000
 10 H s       :     0.000000  s :     0.000000
 11 H s       :     0.000000  s :     0.000000
 12 H s       :     0.000000  s :     0.000000
 13 H s       :     0.000000  s :     0.000000
 14 H s       :     0.000000  s :     0.000000
 15 H s       :     0.000000  s :     0.000000
 16 H s       :     0.000000  s :     0.000000
 17 H s       :     0.000000  s :     0.000000
 18 H s       :     0.000000  s :     0.000000
 19 H s       :     0.000000  s :     0.000000


                     *******************************
                     * LOEWDIN POPULATION ANALYSIS *
                     *******************************

-------------------------------------------
LOEWDIN ATOMIC CHARGES AND SPIN POPULATIONS
-------------------------------------------
   0 C :   -0.318200    0.000000
   1 C :   -0.224071    0.000000
   2 C :   -0.209761    0.000000
   3 C :   -0.211558    0.000000
   4 C :   -0.223202    0.000000
   5 C :   -0.319759    0.000000
   6 H :    0.109533    0.000000
   7 H :    0.106649    0.000000
   8 H :    0.108668    0.000000
   9 H :    0.108904    0.000000
  10 H :    0.107612    0.000000
  11 H :    0.106968    0.000000
  12 H :    0.103902    0.000000
  13 H :    0.108024    0.000000
  14 H :    0.105187    0.000000
  15 H :    0.107240    0.000000
  16 H :    0.109173    0.000000
  17 H :    0.109307    0.000000
  18 H :    0.109205    0.000000
  19 H :    0.106178    0.000000

----------------------------------------------------
LOEWDIN REDUCED ORBITAL CHARGES AND SPIN POPULATIONS
----------------------------------------------------
CHARGE
  0 C s       :     2.954024  s :     2.954024
      pz      :     1.091045  p :     3.290248
      px      :     1.090200
      py      :     1.109002
      dz2     :     0.009136  d :     0.073928
      dxz     :     0.019294
      dyz     :     0.018417
      dx2y2   :     0.006477
      dxy     :     0.020605
  1 C s       :     2.913381  s :     2.913381
      pz      :     1.079411  p :     3.222473
      px      :     1.066701
      py      :     1.076360
      dz2     :     0.010735  d :     0.088217
      dxz     :     0.022523
      dyz     :     0.021038
      dx2y2   :     0.009060
      dxy     :     0.024861
  2 C s       :     2.916993  s :     2.916993
      pz      :     1.087281  p :     3.204165
      px      :     1.048288
      py      :     1.068597
      dz2     :     0.015387  d :     0.088604
      dxz     :     0.013537
      dyz     :     0.020551
      dx2y2   :     0.021817
      dxy     :     0.017311
  3 C s       :     2.917076  s :     2.917076
      pz      :     1.063008  p :     3.206673
      px      :     1.053587
      py      :     1.090078
      dz2     :     0.014397  d :     0.087809
      dxz     :     0.017856
      dyz     :     0.023684
      dx2y2   :     0.018442
      dxy     :     0.013430
  4 C s       :     2.914335  s :     2.914335
      pz      :     1.068646  p :     3.221170
      px      :     1.078245
      py      :     1.074280
      dz2     :     0.018361  d :     0.087696
      dxz     :     0.024998
      dyz     :     0.010508
      dx2y2   :     0.010858
      dxy     :     0.022970
  5 C s       :     2.954158  s :     2.954158
      pz      :     1.110597  p :     3.291639
      px      :     1.102328
      py      :     1.078714
      dz2     :     0.015113  d :     0.073962
      dxz     :     0.019082
      dyz     :     0.007640
      dx2y2   :     0.012262
      dxy     :     0.019865
  6 H s       :     0.890467  s :     0.890467
  7 H s       :     0.893351  s :     0.893351
  8 H s       :     0.891332  s :     0.891332
  9 H s       :     0.891096  s :     0.891096
 10 H s       :     0.892388  s :     0.892388
 11 H s       :     0.893032  s :     0.893032
 12 H s       :     0.896098  s :     0.896098
 13 H s       :     0.891976  s :     0.891976
 14 H s       :     0.894813  s :     0.894813
 15 H s       :     0.892760  s :     0.892760
 16 H s       :     0.890827  s :     0.890827
 17 H s       :     0.890693  s :     0.890693
 18 H s       :     0.890795  s :     0.890795
 19 H s       :     0.893822  s :     0.893822

SPIN
  0 C s       :     0.000000  s :     0.000000
      pz      :     0.000000  p :     0.000000
      px      :     0.000000
      py      :     0.000000
      dz2     :     0.000000  d :     0.000000
      dxz     :     0.000000
      dyz     :     0.000000
      dx2y2   :     0.000000
      dxy     :     0.000000
  1 C s       :     0.000000  s :     0.000000
      pz      :     0.000000  p :     0.000000
      px      :     0.000000
      py      :     0.000000
      dz2     :     0.000000  d :     0.000000
      dxz     :     0.000000
      dyz     :     0.000000
      dx2y2   :     0.000000
      dxy     :     0.000000
  2 C s       :     0.000000  s :     0.000000
      pz      :     0.000000  p :     0.000000
      px      :     0.000000
      py      :     0.000000
      dz2     :     0.000000  d :     0.000000
      dxz     :     0.000000
      dyz     :     0.000000
      dx2y2   :     0.000000
      dxy     :     0.000000
  3 C s       :     0.000000  s :     0.000000
      pz      :     0.000000  p :     0.000000
      px      :     0.000000
      py      :     0.000000
      dz2     :     0.000000  d :     0.000000
      dxz     :     0.000000
      dyz     :     0.000000
      dx2y2   :     0.000000
      dxy     :     0.000000
  4 C s       :     0.000000  s :     0.000000
      pz      :     0.000000  p :     0.000000
      px      :     0.000000
      py      :     0.000000
      dz2     :     0.000000  d :     0.000000
      dxz     :     0.000000
      dyz     :     0.000000
      dx2y2   :     0.000000
      dxy     :     0.000000
  5 C s       :     0.000000  s :     0.000000
      pz      :     0.000000  p :     0.000000
      px      :     0.000000
      py      :     0.000000
      dz2     :     0.000000  d :     0.000000
      dxz     :     0.000000
      dyz     :     0.000000
      dx2y2   :     0.000000
      dxy     :     0.000000
  6 H s       :     0.000000  s :     0.000000
  7 H s       :     0.000000  s :     0.000000
  8 H s       :     0.000000  s :     0.000000
  9 H s       :     0.000000  s :     0.000000
 10 H s       :     0.000000  s :     0.000000
 11 H s       :     0.000000  s :     0.000000
 12 H s       :     0.000000  s :     0.000000
 13 H s       :     0.000000  s :     0.000000
 14 H s       :     0.000000  s :     0.000000
 15 H s       :     0.000000  s :     0.000000
 16 H s       :     0.000000  s :     0.000000
 17 H s       :     0.000000  s :     0.000000
 18 H s       :     0.000000  s :     0.000000
 19 H s       :     0.000000  s :     0.000000


                      *****************************
                      * MAYER POPULATION ANALYSIS *
                      *****************************

  NA   - Mulliken gross atomic population
  ZA   - Total nuclear charge
  QA   - Mulliken gross atomic charge
  VA   - Mayer's total valence
  BVA  - Mayer's bonded valence
  FA   - Mayer's free valence

  ATOM       NA         ZA         QA         VA         BVA        FA
  0 C      6.2589     6.0000    -0.2589     4.0246     4.0246     0.0000
  1 C      6.1705     6.0000    -0.1705     4.0984     4.0984     0.0000
  2 C      6.1428     6.0000    -0.1428     4.0871     4.0871     0.0000
  3 C      6.1408     6.0000    -0.1408     4.0725     4.0725     0.0000
  4 C      6.1611     6.0000    -0.1611     4.0959     4.0959     0.0000
  5 C      6.2689     6.0000    -0.2689     4.0287     4.0287     0.0000
  6 H      0.9132     1.0000     0.0868     0.9531     0.9531     0.0000
  7 H      0.9096     1.0000     0.0904     0.9567     0.9567     0.0000
  8 H      0.9097     1.0000     0.0903     0.9505     0.9505     0.0000
  9 H      0.9253     1.0000     0.0747     0.9449     0.9449     0.0000
 10 H      0.9113     1.0000     0.0887     0.9590     0.9590     0.0000
 11 H      0.9338     1.0000     0.0662     0.9473     0.9473     0.0000
 12 H      0.9280     1.0000     0.0720     0.9581     0.9581     0.0000
 13 H      0.9323     1.0000     0.0677     0.9471     0.9471     0.0000
 14 H      0.9258     1.0000     0.0742     0.9575     0.9575     0.0000
 15 H      0.9145     1.0000     0.0855     0.9562     0.9562     0.0000
 16 H      0.9260     1.0000     0.0740     0.9455     0.9455     0.0000
 17 H      0.9130     1.0000     0.0870     0.9526     0.9526     0.0000
 18 H      0.9088     1.0000     0.0912     0.9510     0.9510     0.0000
 19 H      0.9055     1.0000     0.0945     0.9593     0.9593     0.0000

  Mayer bond orders larger than 0.100000
B(  0-C ,  1-C ) :   1.1374 B(  0-C ,  6-H ) :   0.9583 B(  0-C ,  7-H ) :   0.9596 
B(  0-C ,  8-H ) :   0.9610 B(  1-C ,  2-C ) :   1.0709 B(  1-C ,  9-H ) :   0.9374 
B(  1-C , 10-H ) :   0.9428 B(  2-C ,  3-C ) :   1.1241 B(  2-C , 11-H ) :   0.9328 
B(  2-C , 12-H ) :   0.9450 B(  3-C ,  4-C ) :   1.0607 B(  3-C , 13-H ) :   0.9342 
B(  3-C , 14-H ) :   0.9452 B(  4-C ,  5-C ) :   1.1391 B(  4-C , 15-H ) :   0.9453 
B(  4-C , 16-H ) :   0.9390 B(  5-C , 17-H ) :   0.9587 B(  5-C , 18-H ) :   0.9589 
B(  5-C , 19-H ) :   0.9574 

-------
TIMINGS
-------

Total SCF time: 0 days 0 hours 1 min 54 sec 

Total time                  ....     114.358 sec
Sum of individual times     ....      88.940 sec  ( 77.8%)

Fock matrix formation       ....      75.634 sec  ( 66.1%)
  XC integration            ....      25.452 sec  ( 33.7% of F)
    Basis function eval.    ....       0.980 sec  (  3.9% of XC)
    Density eval.           ....       0.781 sec  (  3.1% of XC)
    XC-Functional eval.     ....       0.221 sec  (  0.9% of XC)
    XC-Potential eval.      ....       0.994 sec  (  3.9% of XC)
Diagonalization             ....       0.050 sec  (  0.0%)
Density matrix formation    ....       4.715 sec  (  4.1%)
Population analysis         ....       1.314 sec  (  1.1%)
Initial guess               ....       0.005 sec  (  0.0%)
Orbital Transformation      ....       0.000 sec  (  0.0%)
Orbital Orthonormalization  ....       0.003 sec  (  0.0%)
DIIS solution               ....       4.442 sec  (  3.9%)
Grid generation             ....       2.780 sec  (  2.4%)


-------------------------------------------------------------------------------
                          DFT DISPERSION CORRECTION                            
                                                                               
                              DFTD3 V3.1  Rev 1                                
                          USING Becke-Johnson damping                          
-------------------------------------------------------------------------------
The B3LYP functional is recognized
Active option DFTDOPT                   ...         4   

molecular C6(AA) [au] = 2519.201919 


            DFT-D V3
 parameters
 s6 scaling factor         :     1.0000 
 a1 scaling factor         :     0.3981 
 s8 scaling factor         :     1.9889 
 a2 scaling factor         :     4.4211 
 ad hoc parameters k1-k3   :    16.0000     1.3333    -4.0000 

 Edisp/kcal,au: -15.818652004744  -0.025208623887 
 E6   /kcal   :  -7.954152727 
 E8   /kcal   :  -7.864499278 
 % E8         :  49.716621083 

-------------------------   ----------------
Dispersion correction           -0.025208624
-------------------------   ----------------


-------------------------   --------------------
FINAL SINGLE POINT ENERGY      -236.713894706861
-------------------------   --------------------

                                *** OPTIMIZATION RUN DONE ***

                            ***************************************
                            *     ORCA property calculations      *
                            ***************************************

                                    ---------------------
                                    Active property flags
                                    ---------------------
   (+) Dipole Moment


------------------------------------------------------------------------------
                       ORCA ELECTRIC PROPERTIES CALCULATION
------------------------------------------------------------------------------

Dipole Moment Calculation                       ... on
Quadrupole Moment Calculation                   ... off
Polarizability Calculation                      ... off
GBWName                                         ... orca5.gbw
Electron density file                           ... orca5.scfp
The origin for moment calculation is the CENTER OF MASS  = (-0.019403,  0.080296 -0.095612)

-------------
DIPOLE MOMENT
-------------
                                X             Y             Z
Electronic contribution:     -0.22453       0.88235      -1.05209
Nuclear contribution   :      0.21030      -0.87032       1.03632
                        -----------------------------------------
Total Dipole Moment    :     -0.01423       0.01204      -0.01577
                        -----------------------------------------
Magnitude (a.u.)       :      0.02441
Magnitude (Debye)      :      0.06205



--------------------
Rotational spectrum 
--------------------
 
Rotational constants in cm-1:     0.181293     0.058013     0.050330 
Rotational constants in MHz :  5435.038083  1739.196375  1508.848036 

 Dipole components along the rotational axes: 
x,y,z [a.u.] :    -0.012862     0.020735    -0.000783 
x,y,z [Debye]:    -0.032693     0.052704    -0.001990 

 

Timings for individual modules:

Sum of individual times         ...     7134.364 sec (= 118.906 min)
GTO integral calculation        ...      217.684 sec (=   3.628 min)   3.1 %
SCF iterations                  ...     6449.553 sec (= 107.493 min)  90.4 %
SCF Gradient evaluation         ...      350.030 sec (=   5.834 min)   4.9 %
Geometry relaxation             ...      117.096 sec (=   1.952 min)   1.6 %
                             ****ORCA TERMINATED NORMALLY****
TOTAL RUN TIME: 0 days 2 hours 3 minutes 17 seconds 203 msec
