14
Properties=species:S:1:pos:R:3 energy=-4307.65456684455 smiles='C(C)(C)C' name=tbu pbc="F F F"
C        0.03110035       0.07099646      -0.44976551
C        0.45707681       1.37540865       0.27871166
C       -1.47314549      -0.23413825      -0.21026921
C        0.92022619      -1.12679286      -0.01464923
H        0.17856051       0.22517772      -1.53867798
H       -0.14921633       2.23655092      -0.05345649
H        1.51868020       1.61274422       0.08817330
H        0.32520012       1.27033626       1.37155867
H       -1.67114129      -0.38918723       0.86664304
H       -2.11168311       0.59833513      -0.55527555
H       -1.78659918      -1.14783326      -0.74571508
H        0.81125287      -1.32030068       1.06881088
H        1.98760064      -0.92636606      -0.21535511
H        0.63979366      -2.05010590      -0.55169249
