
                                 *****************
                                 * O   R   C   A *
                                 *****************

           --- An Ab Initio, DFT and Semiempirical electronic structure package ---

                  #######################################################
                  #                        -***-                        #
                  #          Department of theory and spectroscopy      #
                  #               Directorship: Frank Neese             #
                  #        Max Planck Institute fuer Kohlenforschung    #
                  #                Kaiser Wilhelm Platz 1               #
                  #                 D-45470 Muelheim/Ruhr               #
                  #                      Germany                        #
                  #                                                     #
                  #                  All rights reserved                #
                  #                        -***-                        #
                  #######################################################


                         Program Version 4.2.1 -  RELEASE  -


 With contributions from (in alphabetic order):
   Daniel Aravena         : Magnetic Suceptibility
   Michael Atanasov       : Ab Initio Ligand Field Theory (pilot matlab implementation)
   Alexander A. Auer      : GIAO ZORA, VPT2
   Ute Becker             : Parallelization
   Giovanni Bistoni       : ED, misc. LED, open-shell LED, HFLD
   Martin Brehm           : Molecular dynamics
   Dmytro Bykov           : SCF Hessian
   Vijay G. Chilkuri      : MRCI spin determinant printing, contributions to CSF-ICE
   Dipayan Datta          : RHF DLPNO-CCSD density
   Achintya Kumar Dutta   : EOM-CC, STEOM-CC
   Dmitry Ganyushin       : Spin-Orbit,Spin-Spin,Magnetic field MRCI
   Miquel Garcia          : C-PCM Hessian, Gaussian charge scheme
   Yang Guo               : DLPNO-NEVPT2, CIM, IAO-localization
   Andreas Hansen         : Spin unrestricted coupled pair/coupled cluster methods
   Benjamin Helmich-Paris : CASSCF linear response (MC-RPA)
   Lee Huntington         : MR-EOM, pCC
   Robert Izsak           : Overlap fitted RIJCOSX, COSX-SCS-MP3, EOM
   Christian Kollmar      : KDIIS, OOCD, Brueckner-CCSD(T), CCSD density
   Simone Kossmann        : Meta GGA functionals, TD-DFT gradient, OOMP2, MP2 Hessian
   Martin Krupicka        : AUTO-CI
   Lucas Lang             : DCDCAS
   Dagmar Lenk            : GEPOL surface, SMD
   Dimitrios Liakos       : Extrapolation schemes; Compound Job, initial MDCI parallelization
   Dimitrios Manganas     : Further ROCIS development; embedding schemes
   Dimitrios Pantazis     : SARC Basis sets
   Taras Petrenko         : DFT Hessian,TD-DFT gradient, ASA, ECA, R-Raman, ABS, FL, XAS/XES, NRVS
   Peter Pinski           : DLPNO-MP2, DLPNO-MP2 Gradient
   Christoph Reimann      : Effective Core Potentials
   Marius Retegan         : Local ZFS, SOC
   Christoph Riplinger    : Optimizer, TS searches, QM/MM, DLPNO-CCSD(T), (RO)-DLPNO pert. Triples
   Tobias Risthaus        : Range-separated hybrids, TD-DFT gradient, RPA, STAB
   Michael Roemelt        : Original ROCIS implementation
   Masaaki Saitow         : Open-shell DLPNO-CCSD energy and density
   Barbara Sandhoefer     : DKH picture change effects
   Avijit Sen             : IP-ROCIS
   Kantharuban Sivalingam : CASSCF convergence, NEVPT2, FIC-MRCI
   Bernardo de Souza      : ESD, SOC TD-DFT
   Georgi Stoychev        : AutoAux, RI-MP2 NMR
   Willem Van den Heuvel  : Paramagnetic NMR
   Boris Wezisla          : Elementary symmetry handling
   Frank Wennmohs         : Technical directorship


 We gratefully acknowledge several colleagues who have allowed us to
 interface, adapt or use parts of their codes:
   Stefan Grimme, W. Hujo, H. Kruse,             : VdW corrections, initial TS optimization,
                  C. Bannwarth                     DFT functionals, gCP, sTDA/sTD-DF
   Ed Valeev, F. Pavosevic, A. Kumar             : LibInt (2-el integral package), F12 methods
   Garnet Chan, S. Sharma, J. Yang, R. Olivares  : DMRG
   Ulf Ekstrom                                   : XCFun DFT Library
   Mihaly Kallay                                 : mrcc  (arbitrary order and MRCC methods)
   Andreas Klamt, Michael Diedenhofen            : otool_cosmo (COSMO solvation model)
   Jiri Pittner, Ondrej Demel                    : Mk-CCSD
   Frank Weinhold                                : gennbo (NPA and NBO analysis)
   Christopher J. Cramer and Donald G. Truhlar   : smd solvation model
   Lars Goerigk                                  : TD-DFT with DH, B97 family of functionals
   V. Asgeirsson, H. Jonsson                     : NEB implementation
   FAccTs GmbH                                   : IRC, NEB, NEB-TS, Multilevel, MM, QM/MM, CI optimization
   S Lehtola, MJT Oliveira, MAL Marques          : LibXC Library


 Your calculation uses the libint2 library for the computation of 2-el integrals
 For citations please refer to: http://libint.valeyev.net

 Your ORCA version has been built with support for libXC version: 4.2.3
 For citations please refer to: https://tddft.org/programs/libxc/

 This ORCA versions uses:
   CBLAS   interface :  Fast vector & matrix operations
   LAPACKE interface :  Fast linear algebra routines
   SCALAPACK package :  Parallel linear algebra routines


Your calculation utilizes the atom-pairwise dispersion correction
with the Becke-Johnson damping scheme (D3BJ)
Cite in your paper:
S.Grimme, S.Ehrlich, L.Goerigk, J Comput Chem, (2011), 32, 1456–1465 
S.Grimme, J.Antony, S.Ehrlich and H.Krieg, J.Chem.Phys., 132, (2010), 154104 
   

----- Orbital basis set information -----
Your calculation utilizes the basis: def2-SV(P)
   F. Weigend and R. Ahlrichs, Phys. Chem. Chem. Phys. 7, 3297 (2005).

----- AuxJ basis set information -----
Your calculation utilizes the auxiliary basis: def2/J
   F. Weigend, Phys. Chem. Chem. Phys. 8, 1057 (2006).

================================================================================
                                        WARNINGS
                       Please study these warnings very carefully!
================================================================================


WARNING: Geometry Optimization
  ===> : Switching off AutoStart
         For restart on a previous wavefunction, please use MOREAD

INFO   : the flag for use of LIBINT has been found!

================================================================================
                                       INPUT FILE
================================================================================
NAME = orca3.inp
|  1> ! UKS B3LYP def2-SV(P) def2/J D3BJ Opt
|  2> %scf Convergence VeryTight
|  3> SmearTemp 2000
|  4> maxiter 500
|  5> end
|  6> *xyz 0 1
|  7> C -2.810096 0.38517 0.372528
|  8> C -1.637353 -0.544657 0.522519
|  9> C -0.665479 -0.47987 -0.618442
| 10> C 0.728216 -0.729398 -0.053307
| 11> C 1.420357 0.601068 -0.001583
| 12> C 2.900818 0.505358 -0.287842
| 13> H -2.572349 1.325474 0.889253
| 14> H -3.091396 0.546127 -0.694336
| 15> H -3.699454 -0.085356 0.863802
| 16> H -1.105039 -0.29895 1.47613
| 17> H -2.006369 -1.590515 0.676275
| 18> H -0.68963 0.466018 -1.180649
| 19> H -0.896641 -1.32675 -1.305094
| 20> H 1.284002 -1.489222 -0.643449
| 21> H 0.668043 -1.143945 0.984784
| 22> H 0.981038 1.325701 -0.713336
| 23> H 1.32761 1.011869 1.033565
| 24> H 3.477729 0.287944 0.646375
| 25> H 3.147687 -0.264779 -1.035567
| 26> H 3.238305 1.498711 -0.669221
| 27> *
| 28> 
| 29>                          ****END OF INPUT****
================================================================================

                       *****************************
                       * Geometry Optimization Run *
                       *****************************

Geometry optimization settings:
Update method            Update   .... BFGS
Choice of coordinates    CoordSys .... Z-matrix Internals
Initial Hessian          InHess   .... Almoef's Model

Convergence Tolerances:
Energy Change            TolE     ....  5.0000e-06 Eh
Max. Gradient            TolMAXG  ....  3.0000e-04 Eh/bohr
RMS Gradient             TolRMSG  ....  1.0000e-04 Eh/bohr
Max. Displacement        TolMAXD  ....  4.0000e-03 bohr
RMS Displacement         TolRMSD  ....  2.0000e-03 bohr
Strict Convergence                ....  False
------------------------------------------------------------------------------
                        ORCA OPTIMIZATION COORDINATE SETUP
------------------------------------------------------------------------------

The optimization will be done in new redundant internal coordinates
Making redundant internal coordinates   ...  (new redundants) done
Evaluating the initial hessian          ...  (Almloef) done
Evaluating the coordinates              ...  done
Calculating the B-matrix                .... done
Calculating the G-matrix                .... done
Diagonalizing the G-matrix              .... done
Small eigenvalue found = 2.021e-02
Small eigenvalue found = 2.602e-02
The first mode is                       ....   46
The number of degrees of freedom        ....   54

    -----------------------------------------------------------------
                    Redundant Internal Coordinates


    -----------------------------------------------------------------
         Definition                    Initial Value    Approx d2E/dq
    -----------------------------------------------------------------
      1. B(C   1,C   0)                  1.5041         0.410823   
      2. B(C   2,C   1)                  1.5002         0.416831   
      3. B(C   3,C   2)                  1.5245         0.381233   
      4. B(C   4,C   3)                  1.5006         0.416144   
      5. B(C   5,C   4)                  1.5109         0.400704   
      6. B(H   6,C   0)                  1.0990         0.348448   
      7. B(H   7,C   0)                  1.1150         0.328496   
      8. B(H   8,C   0)                  1.1197         0.322892   
      9. B(H   9,C   1)                  1.1194         0.323209   
     10. B(H  10,C   1)                  1.1197         0.322929   
     11. B(H  11,C   2)                  1.1006         0.346322   
     12. B(H  12,C   2)                  1.1145         0.329093   
     13. B(H  13,C   3)                  1.1111         0.333267   
     14. B(H  14,C   3)                  1.1194         0.323209   
     15. B(H  15,C   4)                  1.1067         0.338727   
     16. B(H  16,C   4)                  1.1175         0.325453   
     17. B(H  17,C   5)                  1.1193         0.323340   
     18. B(H  18,C   5)                  1.1014         0.345293   
     19. B(H  19,C   5)                  1.1163         0.326951   
     20. A(H   7,C   0,H   8)          106.2656         0.281866   
     21. A(C   1,C   0,H   7)          112.4177         0.324489   
     22. A(C   1,C   0,H   6)          108.2628         0.327652   
     23. A(H   6,C   0,H   7)          112.3932         0.285220   
     24. A(H   6,C   0,H   8)          108.9714         0.284457   
     25. A(C   1,C   0,H   8)          108.4069         0.323573   
     26. A(C   2,C   1,H  10)          110.9956         0.324351   
     27. A(C   0,C   1,H  10)          109.5217         0.323579   
     28. A(C   2,C   1,H   9)          109.2902         0.324398   
     29. A(C   0,C   1,H   9)          108.6642         0.323625   
     30. A(H   9,C   1,H  10)          104.1681         0.281164   
     31. A(C   0,C   1,C   2)          113.7390         0.376355   
     32. A(H  11,C   2,H  12)          109.4983         0.285029   
     33. A(C   1,C   2,C   3)          107.6530         0.371535   
     34. A(C   3,C   2,H  11)          110.4929         0.323324   
     35. A(C   1,C   2,H  11)          114.2926         0.328106   
     36. A(C   1,C   2,H  12)          107.5412         0.325361   
     37. A(C   3,C   2,H  12)          107.0758         0.320633   
     38. A(C   2,C   3,C   4)          106.8175         0.371429   
     39. A(H  13,C   3,H  14)          105.4378         0.282540   
     40. A(C   4,C   3,H  14)          108.7331         0.324310   
     41. A(C   2,C   3,H  14)          110.8086         0.319689   
     42. A(C   4,C   3,H  13)          113.1977         0.325948   
     43. A(C   2,C   3,H  13)          111.8603         0.321295   
     44. A(H  15,C   4,H  16)          108.7897         0.283557   
     45. A(C   5,C   4,H  16)          106.2660         0.322670   
     46. A(C   3,C   4,H  16)          108.6364         0.324679   
     47. A(C   5,C   4,H  15)          107.9750         0.324794   
     48. A(C   3,C   4,H  15)          112.0415         0.326821   
     49. A(C   3,C   4,C   5)          112.9075         0.374631   
     50. A(C   4,C   5,H  17)          111.0511         0.322326   
     51. A(H  18,C   5,H  19)          108.8151         0.284608   
     52. A(H  17,C   5,H  19)          107.5883         0.281721   
     53. A(C   4,C   5,H  19)          107.7338         0.322913   
     54. A(H  17,C   5,H  18)          108.3771         0.284117   
     55. A(C   4,C   5,H  18)          113.1119         0.325821   
     56. D(H   9,C   1,C   0,H   8)    -89.6892         0.013368   
     57. D(H  10,C   1,C   0,H   7)    -93.6622         0.013368   
     58. D(H   9,C   1,C   0,H   7)    153.1422         0.013368   
     59. D(H  10,C   1,C   0,H   8)     23.5064         0.013368   
     60. D(H   9,C   1,C   0,H   6)     28.3853         0.013368   
     61. D(C   2,C   1,C   0,H   8)    148.3410         0.013368   
     62. D(C   2,C   1,C   0,H   7)     31.1724         0.013368   
     63. D(C   2,C   1,C   0,H   6)    -93.5845         0.013368   
     64. D(H  10,C   1,C   0,H   6)    141.5809         0.013368   
     65. D(H  11,C   2,C   1,H   9)    -98.0882         0.013752   
     66. D(C   3,C   2,C   1,H  10)    -89.2820         0.013752   
     67. D(C   3,C   2,C   1,C   0)    146.6768         0.013752   
     68. D(H  11,C   2,C   1,C   0)     23.5344         0.013752   
     69. D(H  11,C   2,C   1,H  10)    147.5756         0.013752   
     70. D(H  12,C   2,C   1,H  10)     25.7906         0.013752   
     71. D(H  12,C   2,C   1,H   9)    140.1268         0.013752   
     72. D(H  12,C   2,C   1,C   0)    -98.2506         0.013752   
     73. D(C   3,C   2,C   1,H   9)     25.0543         0.013752   
     74. D(H  14,C   3,C   2,H  11)    139.5591         0.011580   
     75. D(H  14,C   3,C   2,C   1)     14.1203         0.011580   
     76. D(H  13,C   3,C   2,H  12)     16.0817         0.011580   
     77. D(H  13,C   3,C   2,H  11)   -103.0991         0.011580   
     78. D(H  13,C   3,C   2,C   1)    131.4621         0.011580   
     79. D(C   4,C   3,C   2,H  11)     21.2787         0.011580   
     80. D(C   4,C   3,C   2,H  12)    140.4594         0.011580   
     81. D(H  14,C   3,C   2,H  12)   -101.2602         0.011580   
     82. D(C   4,C   3,C   2,C   1)   -104.1601         0.011580   
     83. D(H  15,C   4,C   3,C   2)    -22.9397         0.013707   
     84. D(C   5,C   4,C   3,H  14)     95.2551         0.013707   
     85. D(C   5,C   4,C   3,H  13)    -21.5618         0.013707   
     86. D(C   5,C   4,C   3,C   2)   -145.1160         0.013707   
     87. D(H  16,C   4,C   3,H  14)    -22.3526         0.013707   
     88. D(H  16,C   4,C   3,H  13)   -139.1695         0.013707   
     89. D(H  16,C   4,C   3,C   2)     97.2763         0.013707   
     90. D(H  15,C   4,C   3,H  14)   -142.5685         0.013707   
     91. D(H  15,C   4,C   3,H  13)    100.6146         0.013707   
     92. D(H  19,C   5,C   4,H  16)    -85.5543         0.012738   
     93. D(H  19,C   5,C   4,H  15)     31.0231         0.012738   
     94. D(H  19,C   5,C   4,C   3)    155.4540         0.012738   
     95. D(H  18,C   5,C   4,H  16)    154.1387         0.012738   
     96. D(H  18,C   5,C   4,H  15)    -89.2839         0.012738   
     97. D(H  18,C   5,C   4,C   3)     35.1470         0.012738   
     98. D(H  17,C   5,C   4,H  16)     32.0280         0.012738   
     99. D(H  17,C   5,C   4,H  15)    148.6054         0.012738   
    100. D(H  17,C   5,C   4,C   3)    -86.9637         0.012738   
    -----------------------------------------------------------------

Number of atoms                         .... 20
Number of degrees of freedom            .... 100

Time needed for optimization step       :     1.57 sec

         *************************************************************
         *                GEOMETRY OPTIMIZATION CYCLE   1            *
         *************************************************************
---------------------------------
CARTESIAN COORDINATES (ANGSTROEM)
---------------------------------
  C     -2.810096    0.385170    0.372528
  C     -1.637353   -0.544657    0.522519
  C     -0.665479   -0.479870   -0.618442
  C      0.728216   -0.729398   -0.053307
  C      1.420357    0.601068   -0.001583
  C      2.900818    0.505358   -0.287842
  H     -2.572349    1.325474    0.889253
  H     -3.091396    0.546127   -0.694336
  H     -3.699454   -0.085356    0.863802
  H     -1.105039   -0.298950    1.476130
  H     -2.006369   -1.590515    0.676275
  H     -0.689630    0.466018   -1.180649
  H     -0.896641   -1.326750   -1.305094
  H      1.284002   -1.489222   -0.643449
  H      0.668043   -1.143945    0.984784
  H      0.981038    1.325701   -0.713336
  H      1.327610    1.011869    1.033565
  H      3.477729    0.287944    0.646375
  H      3.147687   -0.264779   -1.035567
  H      3.238305    1.498711   -0.669221

----------------------------
CARTESIAN COORDINATES (A.U.)
----------------------------
  NO LB      ZA    FRAG     MASS         X           Y           Z
   0 C     6.0000    0    12.011   -5.310312    0.727866    0.703976
   1 C     6.0000    0    12.011   -3.094149   -1.029253    0.987418
   2 C     6.0000    0    12.011   -1.257573   -0.906823   -1.168686
   3 C     6.0000    0    12.011    1.376129   -1.378362   -0.100736
   4 C     6.0000    0    12.011    2.684086    1.135854   -0.002991
   5 C     6.0000    0    12.011    5.481752    0.954988   -0.543943
   6 H     1.0000    0     1.008   -4.861035    2.504783    1.680445
   7 H     1.0000    0     1.008   -5.841892    1.032030   -1.312105
   8 H     1.0000    0     1.008   -6.990955   -0.161299    1.632349
   9 H     1.0000    0     1.008   -2.088221   -0.564934    2.789481
  10 H     1.0000    0     1.008   -3.791488   -3.005638    1.277975
  11 H     1.0000    0     1.008   -1.303212    0.880646   -2.231103
  12 H     1.0000    0     1.008   -1.694406   -2.507194   -2.466270
  13 H     1.0000    0     1.008    2.426412   -2.814222   -1.215942
  14 H     1.0000    0     1.008    1.262418   -2.161743    1.860972
  15 H     1.0000    0     1.008    1.853893    2.505212   -1.348010
  16 H     1.0000    0     1.008    2.508819    1.912155    1.953155
  17 H     1.0000    0     1.008    6.571955    0.544135    1.221472
  18 H     1.0000    0     1.008    5.948266   -0.500360   -1.956938
  19 H     1.0000    0     1.008    6.119510    2.832153   -1.264644

--------------------------------
INTERNAL COORDINATES (ANGSTROEM)
--------------------------------
 C      0   0   0     0.000000000000     0.00000000     0.00000000
 C      1   0   0     1.504128217294     0.00000000     0.00000000
 C      2   1   0     1.500176133248   113.73899155     0.00000000
 C      3   2   1     1.524476153974   107.65304875   146.67680189
 C      4   3   2     1.500624641012   106.81746716   255.83988161
 C      5   4   3     1.510916738838   112.90752527   214.88395930
 H      1   2   3     1.098954036368   108.26277987   266.41547674
 H      1   2   3     1.115004771445   112.41765570    31.17242564
 H      1   2   3     1.119688578095   108.40688218   148.34100828
 H      2   1   3     1.119421307536   108.66416640   121.96980878
 H      2   1   3     1.119657390435   109.52169965   235.16538872
 H      3   2   1     1.100619866345   114.29256376    23.53436240
 H      3   2   1     1.114510015095   107.54123743   261.74936618
 H      4   3   2     1.111079731134   111.86032159   131.46212045
 H      4   3   2     1.119420800869   110.80858522    14.12028507
 H      5   4   3     1.106655547792   112.04147841   337.06033892
 H      5   4   3     1.117537851490   108.63635699    97.27627695
 H      6   5   4     1.119310748812   111.05111441   273.03626640
 H      6   5   4     1.101429969428   113.11188428    35.14697870
 H      6   5   4     1.116287417926   107.73381717   155.45401725

---------------------------
INTERNAL COORDINATES (A.U.)
---------------------------
 C      0   0   0     0.000000000000     0.00000000     0.00000000
 C      1   0   0     2.842390400988     0.00000000     0.00000000
 C      2   1   0     2.834922044483   113.73899155     0.00000000
 C      3   2   1     2.880842428704   107.65304875   146.67680189
 C      4   3   2     2.835769601327   106.81746716   255.83988161
 C      5   4   3     2.855218847562   112.90752527   214.88395930
 H      1   2   3     2.076722162503   108.26277987   266.41547674
 H      1   2   3     2.107053656046   112.41765570    31.17242564
 H      1   2   3     2.115904767879   108.40688218   148.34100828
 H      2   1   3     2.115399699719   108.66416640   121.96980878
 H      2   1   3     2.115845831743   109.52169965   235.16538872
 H      3   2   1     2.079870124946   114.29256376    23.53436240
 H      3   2   1     2.106118702043   107.54123743   261.74936618
 H      4   3   2     2.099636404793   111.86032159   131.46212045
 H      4   3   2     2.115398742258   110.80858522    14.12028507
 H      5   4   3     2.091275909912   112.04147841   337.06033892
 H      5   4   3     2.111840483608   108.63635699    97.27627695
 H      6   5   4     2.115190774009   111.05111441   273.03626640
 H      6   5   4     2.081400997913   113.11188428    35.14697870
 H      6   5   4     2.109477506621   107.73381717   155.45401725

---------------------
BASIS SET INFORMATION
---------------------
There are 2 groups of distinct atoms

 Group   1 Type C   : 7s4p1d contracted to 3s2p1d pattern {511/31/1}
 Group   2 Type H   : 4s contracted to 2s pattern {31}

Atom   0C    basis set group =>   1
Atom   1C    basis set group =>   1
Atom   2C    basis set group =>   1
Atom   3C    basis set group =>   1
Atom   4C    basis set group =>   1
Atom   5C    basis set group =>   1
Atom   6H    basis set group =>   2
Atom   7H    basis set group =>   2
Atom   8H    basis set group =>   2
Atom   9H    basis set group =>   2
Atom  10H    basis set group =>   2
Atom  11H    basis set group =>   2
Atom  12H    basis set group =>   2
Atom  13H    basis set group =>   2
Atom  14H    basis set group =>   2
Atom  15H    basis set group =>   2
Atom  16H    basis set group =>   2
Atom  17H    basis set group =>   2
Atom  18H    basis set group =>   2
Atom  19H    basis set group =>   2
---------------------------------
AUXILIARY/J BASIS SET INFORMATION
---------------------------------
There are 2 groups of distinct atoms

 Group   1 Type C   : 12s5p4d2f1g contracted to 6s4p3d1f1g pattern {711111/2111/211/2/1}
 Group   2 Type H   : 5s2p1d contracted to 3s1p1d pattern {311/2/1}

Atom   0C    basis set group =>   1
Atom   1C    basis set group =>   1
Atom   2C    basis set group =>   1
Atom   3C    basis set group =>   1
Atom   4C    basis set group =>   1
Atom   5C    basis set group =>   1
Atom   6H    basis set group =>   2
Atom   7H    basis set group =>   2
Atom   8H    basis set group =>   2
Atom   9H    basis set group =>   2
Atom  10H    basis set group =>   2
Atom  11H    basis set group =>   2
Atom  12H    basis set group =>   2
Atom  13H    basis set group =>   2
Atom  14H    basis set group =>   2
Atom  15H    basis set group =>   2
Atom  16H    basis set group =>   2
Atom  17H    basis set group =>   2
Atom  18H    basis set group =>   2
Atom  19H    basis set group =>   2
------------------------------------------------------------------------------
                           ORCA GTO INTEGRAL CALCULATION
------------------------------------------------------------------------------

                         BASIS SET STATISTICS AND STARTUP INFO

 # of primitive gaussian shells          ...  128
 # of primitive gaussian functions       ...  200
 # of contracted shells                  ...   64
 # of contracted basis functions         ...  112
 Highest angular momentum                ...    2
 Maximum contraction depth               ...    5
 Integral package used                   ... LIBINT
 Integral threshhold            Thresh   ...  1.000e-12
 Primitive cut-off              TCut     ...  1.000e-14


------------------------------ INTEGRAL EVALUATION ----------------------------


 * One electron integrals 
 Pre-screening matrix                    ... done
 Shell pair data                         ... done (   0.001 sec)

-------------------------------------------------------------------------------
                                 ORCA SCF
-------------------------------------------------------------------------------

------------
SCF SETTINGS
------------
Hamiltonian:
 Density Functional     Method          .... DFT(GTOs)
 Exchange Functional    Exchange        .... B88
   X-Alpha parameter    XAlpha          ....  0.666667
   Becke's b parameter  XBeta           ....  0.004200
 Correlation Functional Correlation     .... LYP
 LDA part of GGA corr.  LDAOpt          .... VWN-5
 Gradients option       PostSCFGGA      .... off
 Hybrid DFT is turned on
   Fraction HF Exchange ScalHFX         ....  0.200000
   Scaling of DF-GGA-X  ScalDFX         ....  0.720000
   Scaling of DF-GGA-C  ScalDFC         ....  0.810000
   Scaling of DF-LDA-C  ScalLDAC        ....  1.000000
   Perturbative correction              ....  0.000000
   Density functional embedding theory  .... OFF
   NL short-range parameter             ....  4.800000


General Settings:
 Integral files         IntName         .... orca3
 Hartree-Fock type      HFTyp           .... UHF
 Total Charge           Charge          ....    0
 Multiplicity           Mult            ....    1
 Number of Electrons    NEL             ....   50
 Basis Dimension        Dim             ....  112
 Nuclear Repulsion      ENuc            ....    250.6204041826 Eh

Convergence Acceleration:
 DIIS                   CNVDIIS         .... on
   Start iteration      DIISMaxIt       ....    12
   Startup error        DIISStart       ....  0.200000
   # of expansion vecs  DIISMaxEq       ....     5
   Bias factor          DIISBfac        ....   1.050
   Max. coefficient     DIISMaxC        ....  10.000
 Newton-Raphson         CNVNR           .... off
 SOSCF                  CNVSOSCF        .... off
 Level Shifting         CNVShift        .... on
   Level shift para.    LevelShift      ....    0.2500
   Turn off err/grad.   ShiftErr        ....    0.0010
 Zerner damping         CNVZerner       .... off
 Static damping         CNVDamp         .... on
   Fraction old density DampFac         ....    0.7000
   Max. Damping (<1)    DampMax         ....    0.9800
   Min. Damping (>=0)   DampMin         ....    0.0000
   Turn off err/grad.   DampErr         ....    0.1000
 Fernandez-Rico         CNVRico         .... off

SCF Procedure:
 Maximum # iterations   MaxIter         ....   500
 SCF integral mode      SCFMode         .... Direct
   Integral package                     .... LIBINT
 Reset frequency        DirectResetFreq ....    20
 Integral Threshold     Thresh          ....  1.000e-12 Eh
 Primitive CutOff       TCut            ....  1.000e-14 Eh

Convergence Tolerance:
 Convergence Check Mode ConvCheckMode   .... Total+1el-Energy
 Convergence forced     ConvForced      .... 0
 Energy Change          TolE            ....  1.000e-09 Eh
 1-El. energy change                    ....  1.000e-06 Eh
 DIIS Error             TolErr          ....  1.000e-08


Diagonalization of the overlap matrix:
Smallest eigenvalue                        ... 1.712e-03
Time for diagonalization                   ...    0.002 sec
Threshold for overlap eigenvalues          ... 1.000e-08
Number of eigenvalues below threshold      ... 0
Time for construction of square roots      ...    2.452 sec
Total time needed                          ...    2.454 sec

-------------------
DFT GRID GENERATION
-------------------

General Integration Accuracy     IntAcc      ...  4.340
Radial Grid Type                 RadialGrid  ... Gauss-Chebyshev
Angular Grid (max. acc.)         AngularGrid ... Lebedev-110
Angular grid pruning method      GridPruning ... 3 (G Style)
Weight generation scheme         WeightScheme... Becke
Basis function cutoff            BFCut       ...    1.0000e-12
Integration weight cutoff        WCut        ...    1.0000e-14
Grids for H and He will be reduced by one unit

# of grid points (after initial pruning)     ...  21052 (   0.0 sec)
# of grid points (after weights+screening)   ...  19318 (   0.1 sec)
nearest neighbour list constructed           ...    0.0 sec
Grid point re-assignment to atoms done       ...    0.0 sec
Grid point division into batches done        ...    0.0 sec
Reduced shell lists constructed in    0.1 sec

Total number of grid points                  ...    19318
Total number of batches                      ...      310
Average number of points per batch           ...       62
Average number of grid points per atom       ...      966
Average number of shells per batch           ...    50.80 (79.37%)
Average number of basis functions per batch  ...    87.75 (78.35%)
Average number of large shells per batch     ...    41.65 (81.99%)
Average number of large basis fcns per batch ...    71.85 (81.88%)
Maximum spatial batch extension              ...  20.39, 25.60, 21.22 au
Average spatial batch extension              ...   3.50,  3.63,  3.73 au

Time for grid setup =    2.474 sec

------------------------------
INITIAL GUESS: MODEL POTENTIAL
------------------------------
Loading Hartree-Fock densities                     ... done
Calculating cut-offs                               ... done
Setting up the integral package                    ... done
Initializing the effective Hamiltonian             ... done
Starting the Coulomb interaction                   ... done (   0.1 sec)
Reading the grid                                   ... done
Mapping shells                                     ... done
Starting the XC term evaluation                    ... done (   0.2 sec)
  promolecular density results
     # of electrons  =     49.991658196
     EX              =    -35.008890238
     EC              =     -1.576397464
     EX+EC           =    -36.585287703
Transforming the Hamiltonian                       ... done (   0.0 sec)
Diagonalizing the Hamiltonian                      ... done (   0.0 sec)
Back transforming the eigenvectors                 ... done (   0.0 sec)
Now organizing SCF variables                       ... done
                      ------------------
                      INITIAL GUESS DONE (   2.8 sec)
                      ------------------
--------------
SCF ITERATIONS
--------------
ITER       Energy         Delta-E        Max-DP      RMS-DP      [F,P]     Damp
               ***  Starting incremental Fock matrix formation  ***
  0   -236.4139789249   0.000000000000 0.04213895  0.00183556  0.1754473 0.7000
  1   -236.5319709348  -0.117992009887 0.02594009  0.00130413  0.0908988 0.7000
                               ***Turning on DIIS***
  2   -236.5784636324  -0.046492697575 0.03580581  0.00212071  0.0336560 0.0000
  3   -236.6411594666  -0.062695834243 0.01721059  0.00088589  0.0502957 0.0000
  4   -236.6622216687  -0.021062202131 0.00359086  0.00026890  0.0113658 0.0000
  5   -236.6633024216  -0.001080752837 0.00136368  0.00009501  0.0023337 0.0000
  6   -236.6633665080  -0.000064086394 0.00062753  0.00004846  0.0007744 0.0000
  7   -236.6633719119  -0.000005403974 0.00020819  0.00000509  0.0003514 0.0000
  8   -236.6633723133  -0.000000401322 0.00003199  0.00000141  0.0000598 0.0000
  9   -236.6633723285  -0.000000015243 0.00001142  0.00000048  0.0000205 0.0000
 10   -236.6633723305  -0.000000001940 0.00000478  0.00000018  0.0000092 0.0000
 11   -236.6633723308  -0.000000000333 0.00000112  0.00000007  0.0000026 0.0000
 12   -236.6633723308  -0.000000000024 0.00000024  0.00000001  0.0000006 0.0000
 13   -236.6633723308   0.000000000000 0.00000014  0.00000000  0.0000002 0.0000
                 **** Energy Check signals convergence ****

 Fermi smearing  (ALPHA): E(HOMO(Eh)) = -0.287026 MUE = -0.115288 gap=   9.346 eV
 Fermi smearing   (BETA): E(HOMO(Eh)) = -0.287026 MUE = -0.115288 gap=   9.346 eV

N_FOD(alpha) =  0.000000
 N_FOD(beta) =  0.000000
       N_FOD =  0.000000

               *****************************************************
               *                     SUCCESS                       *
               *           SCF CONVERGED AFTER  14 CYCLES          *
               *****************************************************

Setting up the final grid:

General Integration Accuracy     IntAcc      ...  4.670
Radial Grid Type                 RadialGrid  ... Gauss-Chebyshev
Angular Grid (max. acc.)         AngularGrid ... Lebedev-302
Angular grid pruning method      GridPruning ... 3 (G Style)
Weight generation scheme         WeightScheme... Becke
Basis function cutoff            BFCut       ...    1.0000e-12
Integration weight cutoff        WCut        ...    1.0000e-14
Grids for H and He will be reduced by one unit

# of grid points (after initial pruning)     ...  84788 (   0.0 sec)
# of grid points (after weights+screening)   ...  76488 (   0.2 sec)
nearest neighbour list constructed           ...    0.0 sec
Grid point re-assignment to atoms done       ...    0.0 sec
Grid point division into batches done        ...    0.2 sec
Reduced shell lists constructed in    0.5 sec

Total number of grid points                  ...    76488
Total number of batches                      ...     1204
Average number of points per batch           ...       63
Average number of grid points per atom       ...     3824
Average number of shells per batch           ...    47.49 (74.20%)
Average number of basis functions per batch  ...    81.58 (72.84%)
Average number of large shells per batch     ...    38.22 (80.49%)
Average number of large basis fcns per batch ...    65.57 (80.37%)
Maximum spatial batch extension              ...  19.91, 20.14, 21.13 au
Average spatial batch extension              ...   2.33,  2.41,  2.46 au

Final grid set up in    4.2 sec
Final integration                            ... done (   5.2 sec)
Change in XC energy                          ...    -0.000275166
Integrated number of electrons               ...    50.000062052
Previous integrated no of electrons          ...    49.997913340

----------------
TOTAL SCF ENERGY
----------------

Total Energy       :         -236.66364750 Eh           -6439.94525 eV

Components:
Nuclear Repulsion  :          250.62040418 Eh            6819.72791 eV
Electronic Energy  :         -487.28405168 Eh          -13259.67315 eV
One Electron Energy:         -813.06334624 Eh          -22124.57844 eV
Two Electron Energy:          325.77929456 Eh            8864.90529 eV

Virial components:
Potential Energy   :         -470.93410807 Eh          -12814.76857 eV
Kinetic Energy     :          234.27046057 Eh            6374.82332 eV
Virial Ratio       :            2.01021549


DFT components:
N(Alpha)           :       25.000031026066 electrons
N(Beta)            :       25.000031026066 electrons
N(Total)           :       50.000062052132 electrons
E(X)               :      -28.518013601990 Eh       
E(C)               :       -1.871412976138 Eh       
E(XC)              :      -30.389426578128 Eh       
DFET-embed. en.    :        0.000000000000 Eh       

---------------
SCF CONVERGENCE
---------------

  Last Energy change         ...   -3.1577e-11  Tolerance :   1.0000e-09
  Last MAX-Density change    ...    4.1617e-08  Tolerance :   1.0000e-08
  Last RMS-Density change    ...    1.0110e-09  Tolerance :   1.0000e-09
  Last DIIS Error            ...    7.5139e-08  Tolerance :   1.0000e-08

             **** THE GBW FILE WAS UPDATED (orca3.gbw) ****
             **** DENSITY FILE WAS UPDATED (orca3.scfp) ****
             **** ENERGY FILE WAS UPDATED (orca3.en.tmp) ****
             **** THE GBW FILE WAS UPDATED (orca3.gbw) ****
             **** DENSITY FILE WAS UPDATED (orca3.scfp) ****
----------------
ORBITAL ENERGIES
----------------
                 SPIN UP ORBITALS
  NO   OCC          E(Eh)            E(eV) 
   0   1.0000     -10.166742      -276.6511 
   1   1.0000     -10.166480      -276.6440 
   2   1.0000     -10.163185      -276.5543 
   3   1.0000     -10.163098      -276.5520 
   4   1.0000     -10.163039      -276.5504 
   5   1.0000     -10.162537      -276.5367 
   6   1.0000      -0.805178       -21.9100 
   7   1.0000      -0.758036       -20.6272 
   8   1.0000      -0.696478       -18.9521 
   9   1.0000      -0.621399       -16.9091 
  10   1.0000      -0.569056       -15.4848 
  11   1.0000      -0.563720       -15.3396 
  12   1.0000      -0.463661       -12.6169 
  13   1.0000      -0.457811       -12.4577 
  14   1.0000      -0.434015       -11.8102 
  15   1.0000      -0.411712       -11.2032 
  16   1.0000      -0.409221       -11.1355 
  17   1.0000      -0.385851       -10.4995 
  18   1.0000      -0.359879        -9.7928 
  19   1.0000      -0.349337        -9.5059 
  20   1.0000      -0.339617        -9.2414 
  21   1.0000      -0.333061        -9.0631 
  22   1.0000      -0.321902        -8.7594 
  23   1.0000      -0.301024        -8.1913 
  24   1.0000      -0.287026        -7.8104 
  25   0.0000       0.056449         1.5361 
  26   0.0000       0.063867         1.7379 
  27   0.0000       0.074788         2.0351 
  28   0.0000       0.080542         2.1917 
  29   0.0000       0.107032         2.9125 
  30   0.0000       0.108324         2.9476 
  31   0.0000       0.120550         3.2803 
  32   0.0000       0.138028         3.7559 
  33   0.0000       0.147855         4.0233 
  34   0.0000       0.158346         4.3088 
  35   0.0000       0.164374         4.4729 
  36   0.0000       0.175096         4.7646 
  37   0.0000       0.184682         5.0254 
  38   0.0000       0.205992         5.6053 
  39   0.0000       0.241249         6.5647 
  40   0.0000       0.253651         6.9022 
  41   0.0000       0.262250         7.1362 
  42   0.0000       0.270754         7.3676 
  43   0.0000       0.297320         8.0905 
  44   0.0000       0.412784        11.2324 
  45   0.0000       0.419373        11.4117 
  46   0.0000       0.437495        11.9049 
  47   0.0000       0.458443        12.4749 
  48   0.0000       0.477960        13.0060 
  49   0.0000       0.502733        13.6801 
  50   0.0000       0.514622        14.0036 
  51   0.0000       0.557815        15.1789 
  52   0.0000       0.562747        15.3131 
  53   0.0000       0.597880        16.2692 
  54   0.0000       0.630259        17.1502 
  55   0.0000       0.642691        17.4885 
  56   0.0000       0.646442        17.5906 
  57   0.0000       0.658325        17.9139 
  58   0.0000       0.668990        18.2041 
  59   0.0000       0.683619        18.6022 
  60   0.0000       0.684874        18.6364 
  61   0.0000       0.689810        18.7707 
  62   0.0000       0.694797        18.9064 
  63   0.0000       0.698235        18.9999 
  64   0.0000       0.709074        19.2949 
  65   0.0000       0.712534        19.3890 
  66   0.0000       0.717456        19.5230 
  67   0.0000       0.719699        19.5840 
  68   0.0000       0.723643        19.6913 
  69   0.0000       0.734459        19.9856 
  70   0.0000       0.739670        20.1274 
  71   0.0000       0.748246        20.3608 
  72   0.0000       0.761845        20.7308 
  73   0.0000       0.783952        21.3324 
  74   0.0000       0.800734        21.7891 
  75   0.0000       0.847482        23.0611 
  76   0.0000       0.876320        23.8459 
  77   0.0000       0.897128        24.4121 
  78   0.0000       0.999630        27.2013 
  79   0.0000       1.053561        28.6688 
  80   0.0000       1.089818        29.6555 
  81   0.0000       1.156719        31.4759 
  82   0.0000       1.388264        37.7766 
  83   0.0000       1.428686        38.8765 
  84   0.0000       1.612012        43.8651 
  85   0.0000       1.641549        44.6688 
  86   0.0000       1.755767        47.7769 
  87   0.0000       1.788469        48.6667 
  88   0.0000       1.843892        50.1749 
  89   0.0000       1.860191        50.6184 
  90   0.0000       1.884063        51.2680 
  91   0.0000       1.904693        51.8293 
  92   0.0000       1.949407        53.0461 
  93   0.0000       1.967285        53.5325 
  94   0.0000       2.017165        54.8899 
  95   0.0000       2.030800        55.2609 
  96   0.0000       2.061805        56.1046 
  97   0.0000       2.085531        56.7502 
  98   0.0000       2.118767        57.6546 
  99   0.0000       2.135354        58.1059 
 100   0.0000       2.209603        60.1263 
 101   0.0000       2.276347        61.9426 
 102   0.0000       2.291249        62.3480 
 103   0.0000       2.303277        62.6754 
 104   0.0000       2.376182        64.6592 
 105   0.0000       2.389268        65.0153 
 106   0.0000       2.452553        66.7373 
 107   0.0000       2.466790        67.1248 
 108   0.0000       2.616001        71.1850 
 109   0.0000       2.664417        72.5025 
 110   0.0000       2.720805        74.0369 
 111   0.0000       2.782970        75.7285 

                 SPIN DOWN ORBITALS
  NO   OCC          E(Eh)            E(eV) 
   0   1.0000     -10.166742      -276.6511 
   1   1.0000     -10.166480      -276.6440 
   2   1.0000     -10.163185      -276.5543 
   3   1.0000     -10.163098      -276.5520 
   4   1.0000     -10.163039      -276.5504 
   5   1.0000     -10.162537      -276.5367 
   6   1.0000      -0.805178       -21.9100 
   7   1.0000      -0.758036       -20.6272 
   8   1.0000      -0.696478       -18.9521 
   9   1.0000      -0.621399       -16.9091 
  10   1.0000      -0.569056       -15.4848 
  11   1.0000      -0.563720       -15.3396 
  12   1.0000      -0.463661       -12.6169 
  13   1.0000      -0.457811       -12.4577 
  14   1.0000      -0.434015       -11.8102 
  15   1.0000      -0.411712       -11.2032 
  16   1.0000      -0.409221       -11.1355 
  17   1.0000      -0.385851       -10.4995 
  18   1.0000      -0.359879        -9.7928 
  19   1.0000      -0.349337        -9.5059 
  20   1.0000      -0.339617        -9.2414 
  21   1.0000      -0.333061        -9.0631 
  22   1.0000      -0.321902        -8.7594 
  23   1.0000      -0.301024        -8.1913 
  24   1.0000      -0.287026        -7.8104 
  25   0.0000       0.056449         1.5361 
  26   0.0000       0.063867         1.7379 
  27   0.0000       0.074788         2.0351 
  28   0.0000       0.080542         2.1917 
  29   0.0000       0.107032         2.9125 
  30   0.0000       0.108324         2.9476 
  31   0.0000       0.120550         3.2803 
  32   0.0000       0.138028         3.7559 
  33   0.0000       0.147855         4.0233 
  34   0.0000       0.158346         4.3088 
  35   0.0000       0.164374         4.4729 
  36   0.0000       0.175096         4.7646 
  37   0.0000       0.184682         5.0254 
  38   0.0000       0.205992         5.6053 
  39   0.0000       0.241249         6.5647 
  40   0.0000       0.253651         6.9022 
  41   0.0000       0.262250         7.1362 
  42   0.0000       0.270754         7.3676 
  43   0.0000       0.297320         8.0905 
  44   0.0000       0.412784        11.2324 
  45   0.0000       0.419373        11.4117 
  46   0.0000       0.437495        11.9049 
  47   0.0000       0.458443        12.4749 
  48   0.0000       0.477960        13.0060 
  49   0.0000       0.502733        13.6801 
  50   0.0000       0.514622        14.0036 
  51   0.0000       0.557815        15.1789 
  52   0.0000       0.562747        15.3131 
  53   0.0000       0.597880        16.2692 
  54   0.0000       0.630259        17.1502 
  55   0.0000       0.642691        17.4885 
  56   0.0000       0.646442        17.5906 
  57   0.0000       0.658325        17.9139 
  58   0.0000       0.668990        18.2041 
  59   0.0000       0.683619        18.6022 
  60   0.0000       0.684874        18.6364 
  61   0.0000       0.689810        18.7707 
  62   0.0000       0.694797        18.9064 
  63   0.0000       0.698235        18.9999 
  64   0.0000       0.709074        19.2949 
  65   0.0000       0.712534        19.3890 
  66   0.0000       0.717456        19.5230 
  67   0.0000       0.719699        19.5840 
  68   0.0000       0.723643        19.6913 
  69   0.0000       0.734459        19.9856 
  70   0.0000       0.739670        20.1274 
  71   0.0000       0.748246        20.3608 
  72   0.0000       0.761845        20.7308 
  73   0.0000       0.783952        21.3324 
  74   0.0000       0.800734        21.7891 
  75   0.0000       0.847482        23.0611 
  76   0.0000       0.876320        23.8459 
  77   0.0000       0.897128        24.4121 
  78   0.0000       0.999630        27.2013 
  79   0.0000       1.053561        28.6688 
  80   0.0000       1.089818        29.6555 
  81   0.0000       1.156719        31.4759 
  82   0.0000       1.388264        37.7766 
  83   0.0000       1.428686        38.8765 
  84   0.0000       1.612012        43.8651 
  85   0.0000       1.641549        44.6688 
  86   0.0000       1.755767        47.7769 
  87   0.0000       1.788469        48.6667 
  88   0.0000       1.843892        50.1749 
  89   0.0000       1.860191        50.6184 
  90   0.0000       1.884063        51.2680 
  91   0.0000       1.904693        51.8293 
  92   0.0000       1.949407        53.0461 
  93   0.0000       1.967285        53.5325 
  94   0.0000       2.017165        54.8899 
  95   0.0000       2.030800        55.2609 
  96   0.0000       2.061805        56.1046 
  97   0.0000       2.085531        56.7502 
  98   0.0000       2.118767        57.6546 
  99   0.0000       2.135354        58.1059 
 100   0.0000       2.209603        60.1263 
 101   0.0000       2.276347        61.9426 
 102   0.0000       2.291249        62.3480 
 103   0.0000       2.303277        62.6754 
 104   0.0000       2.376182        64.6592 
 105   0.0000       2.389268        65.0153 
 106   0.0000       2.452553        66.7373 
 107   0.0000       2.466790        67.1248 
 108   0.0000       2.616001        71.1850 
 109   0.0000       2.664417        72.5025 
 110   0.0000       2.720805        74.0369 
 111   0.0000       2.782970        75.7285 

                    ********************************
                    * MULLIKEN POPULATION ANALYSIS *
                    ********************************

------------------------------------------
FOD BASED MULLIKEN REDUCED ORBITAL CHARGES
------------------------------------------
  0 C s       :    -0.000000  s :    -0.000000
      pz      :     0.000000  p :     0.000000
      px      :     0.000000
      py      :     0.000000
      dz2     :     0.000000  d :     0.000000
      dxz     :     0.000000
      dyz     :     0.000000
      dx2y2   :     0.000000
      dxy     :     0.000000
  1 C s       :    -0.000000  s :    -0.000000
      pz      :     0.000000  p :     0.000000
      px      :     0.000000
      py      :     0.000000
      dz2     :     0.000000  d :     0.000000
      dxz     :     0.000000
      dyz     :     0.000000
      dx2y2   :     0.000000
      dxy     :     0.000000
  2 C s       :    -0.000000  s :    -0.000000
      pz      :     0.000000  p :     0.000000
      px      :     0.000000
      py      :     0.000000
      dz2     :     0.000000  d :     0.000000
      dxz     :     0.000000
      dyz     :     0.000000
      dx2y2   :     0.000000
      dxy     :     0.000000
  3 C s       :    -0.000000  s :    -0.000000
      pz      :     0.000000  p :     0.000000
      px      :     0.000000
      py      :     0.000000
      dz2     :     0.000000  d :     0.000000
      dxz     :     0.000000
      dyz     :     0.000000
      dx2y2   :     0.000000
      dxy     :     0.000000
  4 C s       :    -0.000000  s :    -0.000000
      pz      :     0.000000  p :     0.000000
      px      :     0.000000
      py      :     0.000000
      dz2     :     0.000000  d :     0.000000
      dxz     :     0.000000
      dyz     :     0.000000
      dx2y2   :     0.000000
      dxy     :     0.000000
  5 C s       :    -0.000000  s :    -0.000000
      pz      :     0.000000  p :     0.000000
      px      :     0.000000
      py      :     0.000000
      dz2     :     0.000000  d :     0.000000
      dxz     :     0.000000
      dyz     :     0.000000
      dx2y2   :     0.000000
      dxy     :     0.000000
  6 H s       :     0.000000  s :     0.000000
  7 H s       :     0.000000  s :     0.000000
  8 H s       :     0.000000  s :     0.000000
  9 H s       :     0.000000  s :     0.000000
 10 H s       :     0.000000  s :     0.000000
 11 H s       :     0.000000  s :     0.000000
 12 H s       :     0.000000  s :     0.000000
 13 H s       :     0.000000  s :     0.000000
 14 H s       :     0.000000  s :     0.000000
 15 H s       :     0.000000  s :     0.000000
 16 H s       :     0.000000  s :     0.000000
 17 H s       :     0.000000  s :     0.000000
 18 H s       :     0.000000  s :     0.000000
 19 H s       :     0.000000  s :     0.000000


                     *******************************
                     * LOEWDIN POPULATION ANALYSIS *
                     *******************************

-------------------------------------------
LOEWDIN ATOMIC CHARGES AND SPIN POPULATIONS
-------------------------------------------
   0 C :   -0.318562    0.000000
   1 C :   -0.220006    0.000000
   2 C :   -0.210573    0.000000
   3 C :   -0.211712    0.000000
   4 C :   -0.220378    0.000000
   5 C :   -0.317149    0.000000
   6 H :    0.113217    0.000000
   7 H :    0.108928    0.000000
   8 H :    0.108382    0.000000
   9 H :    0.100935    0.000000
  10 H :    0.104933    0.000000
  11 H :    0.106360    0.000000
  12 H :    0.109130    0.000000
  13 H :    0.101117    0.000000
  14 H :    0.107857    0.000000
  15 H :    0.104686    0.000000
  16 H :    0.110089    0.000000
  17 H :    0.107958    0.000000
  18 H :    0.106664    0.000000
  19 H :    0.108122    0.000000

----------------------------------------------------
LOEWDIN REDUCED ORBITAL CHARGES AND SPIN POPULATIONS
----------------------------------------------------
CHARGE
  0 C s       :     2.950656  s :     2.950656
      pz      :     1.104448  p :     3.292729
      px      :     1.085416
      py      :     1.102865
      dz2     :     0.016497  d :     0.075177
      dxz     :     0.013506
      dyz     :     0.011935
      dx2y2   :     0.016012
      dxy     :     0.017226
  1 C s       :     2.904376  s :     2.904376
      pz      :     1.069968  p :     3.218760
      px      :     1.062994
      py      :     1.085799
      dz2     :     0.022496  d :     0.096870
      dxz     :     0.026374
      dyz     :     0.008449
      dx2y2   :     0.019492
      dxy     :     0.020059
  2 C s       :     2.908826  s :     2.908826
      pz      :     1.077696  p :     3.209340
      px      :     1.048554
      py      :     1.083091
      dz2     :     0.009929  d :     0.092408
      dxz     :     0.022469
      dyz     :     0.026976
      dx2y2   :     0.023079
      dxy     :     0.009956
  3 C s       :     2.910574  s :     2.910574
      pz      :     1.082442  p :     3.209444
      px      :     1.055806
      py      :     1.071196
      dz2     :     0.017385  d :     0.091694
      dxz     :     0.013539
      dyz     :     0.019631
      dx2y2   :     0.018579
      dxy     :     0.022559
  4 C s       :     2.904322  s :     2.904322
      pz      :     1.086490  p :     3.220720
      px      :     1.064692
      py      :     1.069538
      dz2     :     0.017490  d :     0.095336
      dxz     :     0.011540
      dyz     :     0.021704
      dx2y2   :     0.023201
      dxy     :     0.021400
  5 C s       :     2.953750  s :     2.953750
      pz      :     1.108820  p :     3.288237
      px      :     1.074147
      py      :     1.105270
      dz2     :     0.009550  d :     0.075162
      dxz     :     0.018283
      dyz     :     0.016296
      dx2y2   :     0.018954
      dxy     :     0.012079
  6 H s       :     0.886783  s :     0.886783
  7 H s       :     0.891072  s :     0.891072
  8 H s       :     0.891618  s :     0.891618
  9 H s       :     0.899065  s :     0.899065
 10 H s       :     0.895067  s :     0.895067
 11 H s       :     0.893640  s :     0.893640
 12 H s       :     0.890870  s :     0.890870
 13 H s       :     0.898883  s :     0.898883
 14 H s       :     0.892143  s :     0.892143
 15 H s       :     0.895314  s :     0.895314
 16 H s       :     0.889911  s :     0.889911
 17 H s       :     0.892042  s :     0.892042
 18 H s       :     0.893336  s :     0.893336
 19 H s       :     0.891878  s :     0.891878

SPIN
  0 C s       :     0.000000  s :     0.000000
      pz      :     0.000000  p :     0.000000
      px      :     0.000000
      py      :     0.000000
      dz2     :     0.000000  d :     0.000000
      dxz     :     0.000000
      dyz     :     0.000000
      dx2y2   :     0.000000
      dxy     :     0.000000
  1 C s       :     0.000000  s :     0.000000
      pz      :     0.000000  p :     0.000000
      px      :     0.000000
      py      :     0.000000
      dz2     :     0.000000  d :     0.000000
      dxz     :     0.000000
      dyz     :     0.000000
      dx2y2   :     0.000000
      dxy     :     0.000000
  2 C s       :     0.000000  s :     0.000000
      pz      :     0.000000  p :     0.000000
      px      :     0.000000
      py      :     0.000000
      dz2     :     0.000000  d :     0.000000
      dxz     :     0.000000
      dyz     :     0.000000
      dx2y2   :     0.000000
      dxy     :     0.000000
  3 C s       :     0.000000  s :     0.000000
      pz      :     0.000000  p :     0.000000
      px      :     0.000000
      py      :     0.000000
      dz2     :     0.000000  d :     0.000000
      dxz     :     0.000000
      dyz     :     0.000000
      dx2y2   :     0.000000
      dxy     :     0.000000
  4 C s       :     0.000000  s :     0.000000
      pz      :     0.000000  p :     0.000000
      px      :     0.000000
      py      :     0.000000
      dz2     :     0.000000  d :     0.000000
      dxz     :     0.000000
      dyz     :     0.000000
      dx2y2   :     0.000000
      dxy     :     0.000000
  5 C s       :     0.000000  s :     0.000000
      pz      :     0.000000  p :     0.000000
      px      :     0.000000
      py      :     0.000000
      dz2     :     0.000000  d :     0.000000
      dxz     :     0.000000
      dyz     :     0.000000
      dx2y2   :     0.000000
      dxy     :     0.000000
  6 H s       :     0.000000  s :     0.000000
  7 H s       :     0.000000  s :     0.000000
  8 H s       :     0.000000  s :     0.000000
  9 H s       :     0.000000  s :     0.000000
 10 H s       :     0.000000  s :     0.000000
 11 H s       :     0.000000  s :     0.000000
 12 H s       :     0.000000  s :     0.000000
 13 H s       :     0.000000  s :     0.000000
 14 H s       :     0.000000  s :     0.000000
 15 H s       :     0.000000  s :     0.000000
 16 H s       :     0.000000  s :     0.000000
 17 H s       :     0.000000  s :     0.000000
 18 H s       :     0.000000  s :     0.000000
 19 H s       :     0.000000  s :     0.000000


                      *****************************
                      * MAYER POPULATION ANALYSIS *
                      *****************************

  NA   - Mulliken gross atomic population
  ZA   - Total nuclear charge
  QA   - Mulliken gross atomic charge
  VA   - Mayer's total valence
  BVA  - Mayer's bonded valence
  FA   - Mayer's free valence

  ATOM       NA         ZA         QA         VA         BVA        FA
  0 C      6.2432     6.0000    -0.2432     4.0115     4.0115     0.0000
  1 C      6.1928     6.0000    -0.1928     4.1504     4.1504     0.0000
  2 C      6.1163     6.0000    -0.1163     4.0564     4.0564     0.0000
  3 C      6.1628     6.0000    -0.1628     4.0646     4.0646     0.0000
  4 C      6.1693     6.0000    -0.1693     4.1233     4.1233     0.0000
  5 C      6.2546     6.0000    -0.2546     4.0148     4.0148     0.0000
  6 H      0.9094     1.0000     0.0906     0.9547     0.9547     0.0000
  7 H      0.9064     1.0000     0.0936     0.9578     0.9578     0.0000
  8 H      0.9184     1.0000     0.0816     0.9526     0.9526     0.0000
  9 H      0.9225     1.0000     0.0775     0.9477     0.9477     0.0000
 10 H      0.9266     1.0000     0.0734     0.9442     0.9442     0.0000
 11 H      0.9150     1.0000     0.0850     0.9640     0.9640     0.0000
 12 H      0.9326     1.0000     0.0674     0.9446     0.9446     0.0000
 13 H      0.9287     1.0000     0.0713     0.9568     0.9568     0.0000
 14 H      0.9186     1.0000     0.0814     0.9509     0.9509     0.0000
 15 H      0.9203     1.0000     0.0797     0.9548     0.9548     0.0000
 16 H      0.9251     1.0000     0.0749     0.9448     0.9448     0.0000
 17 H      0.9123     1.0000     0.0877     0.9523     0.9523     0.0000
 18 H      0.9085     1.0000     0.0915     0.9610     0.9610     0.0000
 19 H      0.9167     1.0000     0.0833     0.9527     0.9527     0.0000

  Mayer bond orders larger than 0.100000
B(  0-C ,  1-C ) :   1.1276 B(  0-C ,  6-H ) :   0.9621 B(  0-C ,  7-H ) :   0.9614 
B(  0-C ,  8-H ) :   0.9601 B(  1-C ,  2-C ) :   1.1037 B(  1-C ,  9-H ) :   0.9460 
B(  1-C , 10-H ) :   0.9386 B(  2-C ,  3-C ) :   1.0771 B(  2-C , 11-H ) :   0.9463 
B(  2-C , 12-H ) :   0.9240 B(  3-C ,  4-C ) :   1.0986 B(  3-C , 13-H ) :   0.9389 
B(  3-C , 14-H ) :   0.9359 B(  4-C ,  5-C ) :   1.1309 B(  4-C , 15-H ) :   0.9482 
B(  4-C , 16-H ) :   0.9331 B(  5-C , 17-H ) :   0.9615 B(  5-C , 18-H ) :   0.9626 
B(  5-C , 19-H ) :   0.9615 

-------
TIMINGS
-------

Total SCF time: 0 days 0 hours 6 min 39 sec 

Total time                  ....     399.358 sec
Sum of individual times     ....     323.708 sec  ( 81.1%)

Fock matrix formation       ....     270.210 sec  ( 67.7%)
  XC integration            ....     126.208 sec  ( 46.7% of F)
    Basis function eval.    ....       1.599 sec  (  1.3% of XC)
    Density eval.           ....       1.341 sec  (  1.1% of XC)
    XC-Functional eval.     ....       0.381 sec  (  0.3% of XC)
    XC-Potential eval.      ....       1.774 sec  (  1.4% of XC)
Diagonalization             ....       0.100 sec  (  0.0%)
Density matrix formation    ....      29.354 sec  (  7.4%)
Population analysis         ....       3.724 sec  (  0.9%)
Initial guess               ....       0.373 sec  (  0.1%)
Orbital Transformation      ....       0.000 sec  (  0.0%)
Orbital Orthonormalization  ....       0.000 sec  (  0.0%)
DIIS solution               ....      13.235 sec  (  3.3%)
Grid generation             ....       6.710 sec  (  1.7%)


-------------------------------------------------------------------------------
                          DFT DISPERSION CORRECTION                            
                                                                               
                              DFTD3 V3.1  Rev 1                                
                          USING Becke-Johnson damping                          
-------------------------------------------------------------------------------
The B3LYP functional is recognized
Active option DFTDOPT                   ...         4   

molecular C6(AA) [au] = 2517.813814 


            DFT-D V3
 parameters
 s6 scaling factor         :     1.0000 
 a1 scaling factor         :     0.3981 
 s8 scaling factor         :     1.9889 
 a2 scaling factor         :     4.4211 
 ad hoc parameters k1-k3   :    16.0000     1.3333    -4.0000 

 Edisp/kcal,au: -15.658686499501  -0.024953702655 
 E6   /kcal   :  -7.877409202 
 E8   /kcal   :  -7.781277297 
 % E8         :  49.693039689 

-------------------------   ----------------
Dispersion correction           -0.024953703
-------------------------   ----------------


-------------------------   --------------------
FINAL SINGLE POINT ENERGY      -236.688601199304
-------------------------   --------------------

------------------------------------------------------------------------------
                         ORCA SCF GRADIENT CALCULATION
------------------------------------------------------------------------------

Gradient of the Kohn-Sham DFT energy:
Kohn-Sham wavefunction type      ... UKS
Hartree-Fock exchange scaling    ...    0.200
Number of operators              ...    2
Number of atoms                  ...   20
Basis set dimensions             ...  112
Integral neglect threshold       ... 1.0e-12
Integral primitive cutoff        ... 1.0e-14

Nuclear repulsion gradient       ... done
One Electron Gradient            ... done
Pre-screening matrix             ... done
Starting the two electron gradient:
Two electron gradient done
Exchange-correlation gradient    ... done
Dispersion correction            ... done

------------------
CARTESIAN GRADIENT
------------------

   1   C   :    0.024876055    0.007293278   -0.004114178
   2   C   :    0.010559529    0.005810504   -0.019587500
   3   C   :   -0.005220464    0.039273323    0.002861789
   4   C   :    0.001290289    0.009504558    0.000973694
   5   C   :   -0.021137812   -0.010466363   -0.014368699
   6   C   :   -0.020036064   -0.015973462   -0.007627687
   7   H   :    0.005931284   -0.007949457    0.005481055
   8   H   :   -0.002570917   -0.002992646   -0.006754104
   9   H   :   -0.003417593   -0.010940850    0.001811740
  10   H   :    0.005996469    0.000569459    0.006067831
  11   H   :   -0.006124705   -0.005799661    0.003650902
  12   H   :    0.004426385    0.000953016   -0.000013874
  13   H   :    0.003744729   -0.009995190    0.003913094
  14   H   :   -0.000803187   -0.006480332    0.001222458
  15   H   :    0.000014949    0.001271733    0.011178107
  16   H   :    0.001393957    0.002556881   -0.003401336
  17   H   :    0.005571254   -0.005174222    0.009485615
  18   H   :    0.001432952    0.000852459    0.009121980
  19   H   :   -0.000173024    0.000011331    0.002799100
  20   H   :   -0.005754084    0.007675639   -0.002699987

Difference to translation invariance:
           :    0.0000000000   -0.0000000000   -0.0000000000

Norm of the cartesian gradient     ...    0.0743608741
RMS gradient                       ...    0.0095999476
MAX gradient                       ...    0.0392733231

-------
TIMINGS
-------

Total SCF gradient time            ...       10.679 sec

One electron gradient       ....       0.081 sec  (  0.8%)
Prescreening matrices       ....       0.046 sec  (  0.4%)
Two electron gradient       ....       4.594 sec  ( 43.0%)
XC gradient                 ....       5.367 sec  ( 50.3%)
------------------------------------------------------------------------------
                         ORCA GEOMETRY RELAXATION STEP
------------------------------------------------------------------------------

Reading the OPT-File                    .... done
Getting information on internals        .... done
Copying old internal coords+grads       .... done
Making the new internal coordinates     .... (new redundants).... done
Validating the new internal coordinates .... (new redundants).... done
Calculating the B-matrix                .... done
Calculating the G,G- and P matrices     .... done
Transforming gradient to internals      .... done
Projecting the internal gradient        .... done
Number of atoms                         ....  20
Number of internal coordinates          .... 100
Current Energy                          ....  -236.688601199 Eh
Current gradient norm                   ....     0.074360874 Eh/bohr
Maximum allowed component of the step   ....  0.300
Current trust radius                    ....  0.300
Evaluating the initial hessian          ....  (Almloef) done
Projecting the Hessian                  .... done
Forming the augmented Hessian           .... done
Diagonalizing the augmented Hessian     .... done
Last element of RFO vector              ....  0.932811834
Lowest eigenvalues of augmented Hessian:
 -0.030043167  0.011839240  0.012873221  0.013448109  0.013725702
Length of the computed step             ....  0.386319948
Warning: the length of the step is outside the trust region - taking restricted step instead
The input lambda is                     ....    -0.030043
   iter:   1  x=   -0.047272  g=    3.438511 f(x)=     0.059243
   iter:   2  x=   -0.059463  g=    1.580631 f(x)=     0.019269
   iter:   3  x=   -0.062618  g=    1.076921 f(x)=     0.003398
   iter:   4  x=   -0.062761  g=    0.989342 f(x)=     0.000141
   iter:   5  x=   -0.062762  g=    0.985661 f(x)=     0.000000
   iter:   6  x=   -0.062762  g=    0.985654 f(x)=     0.000000
   iter:   7  x=   -0.062762  g=    0.985654 f(x)=     0.000000
The output lambda is                    ....    -0.062762 (7 iterations)
The final length of the internal step   ....  0.300000000
Converting the step to cartesian space:
 Initial RMS(Int)=    0.0300000000
Transforming coordinates:
 Iter   0:  RMS(Cart)=    0.1444758108 RMS(Int)=    0.0301944253
 Iter   1:  RMS(Cart)=    0.0052645910 RMS(Int)=    0.0020631543
 Iter   2:  RMS(Cart)=    0.0004327833 RMS(Int)=    0.0001251087
 Iter   3:  RMS(Cart)=    0.0000406308 RMS(Int)=    0.0000157490
 Iter   4:  RMS(Cart)=    0.0000030792 RMS(Int)=    0.0000010706
 Iter   5:  RMS(Cart)=    0.0000002980 RMS(Int)=    0.0000001231
 Iter   6:  RMS(Cart)=    0.0000000215 RMS(Int)=    0.0000000088
done
Storing new coordinates                 .... done

                                .--------------------.
          ----------------------|Geometry convergence|-------------------------
          Item                value                   Tolerance       Converged
          ---------------------------------------------------------------------
          RMS gradient        0.0099716795            0.0001000000      NO
          MAX gradient        0.0384791611            0.0003000000      NO
          RMS step            0.0300000000            0.0020000000      NO
          MAX step            0.1018274621            0.0040000000      NO
          ........................................................
          Max(Bonds)      0.0401      Max(Angles)    5.83
          Max(Dihed)        3.54      Max(Improp)    0.00
          ---------------------------------------------------------------------

The optimization has not yet converged - more geometry cycles are needed


    ---------------------------------------------------------------------------
                         Redundant Internal Coordinates
                            (Angstroem and degrees)

        Definition                    Value    dE/dq     Step     New-Value
    ----------------------------------------------------------------------------
     1. B(C   1,C   0)                1.5041 -0.028003  0.0313    1.5354   
     2. B(C   2,C   1)                1.5002 -0.032469  0.0358    1.5360   
     3. B(C   3,C   2)                1.5245 -0.029767  0.0355    1.5600   
     4. B(C   4,C   3)                1.5006 -0.036296  0.0401    1.5407   
     5. B(C   5,C   4)                1.5109 -0.023864  0.0272    1.5382   
     6. B(H   6,C   0)                1.0990 -0.002937  0.0038    1.1027   
     7. B(H   7,C   0)                1.1150  0.006680 -0.0090    1.1060   
     8. B(H   8,C   0)                1.1197  0.008104 -0.0111    1.1086   
     9. B(H   9,C   1)                1.1194  0.008140 -0.0112    1.1083   
    10. B(H  10,C   1)                1.1197  0.007936 -0.0109    1.1088   
    11. B(H  11,C   2)                1.1006  0.000736 -0.0010    1.0997   
    12. B(H  12,C   2)                1.1145  0.004405 -0.0059    1.1086   
    13. B(H  13,C   3)                1.1111  0.003383 -0.0045    1.1066   
    14. B(H  14,C   3)                1.1194  0.009891 -0.0136    1.1059   
    15. B(H  15,C   4)                1.1067  0.003302 -0.0044    1.1023   
    16. B(H  16,C   4)                1.1175  0.006426 -0.0088    1.1088   
    17. B(H  17,C   5)                1.1193  0.008194 -0.0112    1.1081   
    18. B(H  18,C   5)                1.1014 -0.001947  0.0025    1.1040   
    19. B(H  19,C   5)                1.1163  0.006006 -0.0082    1.1081   
    20. A(H   7,C   0,H   8)          106.27  0.002637   -0.14    106.12   
    21. A(C   1,C   0,H   7)          112.42  0.002005   -0.36    112.05   
    22. A(C   1,C   0,H   6)          108.26 -0.011330    1.60    109.86   
    23. A(H   6,C   0,H   7)          112.39  0.008674   -1.83    110.57   
    24. A(H   6,C   0,H   8)          108.97  0.008105   -1.00    107.97   
    25. A(C   1,C   0,H   8)          108.41 -0.010124    1.78    110.19   
    26. A(C   2,C   1,H  10)          111.00  0.004301   -0.82    110.18   
    27. A(C   0,C   1,H  10)          109.52  0.000392   -0.03    109.49   
    28. A(C   2,C   1,H   9)          109.29  0.000691    0.03    109.32   
    29. A(C   0,C   1,H   9)          108.66  0.002150   -0.16    108.50   
    30. A(H   9,C   1,H  10)          104.17 -0.001242    0.08    104.25   
    31. A(C   0,C   1,C   2)          113.74 -0.005890    0.84    114.58   
    32. A(H  11,C   2,H  12)          109.50 -0.001714   -1.32    108.18   
    33. A(C   1,C   2,C   3)          107.65 -0.031197    4.93    112.58   
    34. A(C   3,C   2,H  11)          110.49  0.006928   -0.71    109.78   
    35. A(C   1,C   2,H  11)          114.29  0.015564   -2.75    111.54   
    36. A(C   1,C   2,H  12)          107.54  0.003995    0.01    107.55   
    37. A(C   3,C   2,H  12)          107.08  0.005642    0.08    107.16   
    38. A(C   2,C   3,C   4)          106.82 -0.038479    5.83    112.65   
    39. A(H  13,C   3,H  14)          105.44 -0.006553   -0.29    105.15   
    40. A(C   4,C   3,H  14)          108.73  0.008430   -0.79    107.94   
    41. A(C   2,C   3,H  14)          110.81  0.013114   -1.80    109.01   
    42. A(C   4,C   3,H  13)          113.20  0.015304   -2.11    111.09   
    43. A(C   2,C   3,H  13)          111.86  0.009972   -1.10    110.76   
    44. A(H  15,C   4,H  16)          108.79  0.001907   -1.19    107.60   
    45. A(C   5,C   4,H  16)          106.27  0.000855    0.23    106.50   
    46. A(C   3,C   4,H  16)          108.64  0.001369   -0.08    108.56   
    47. A(C   5,C   4,H  15)          107.98  0.000429    0.17    108.15   
    48. A(C   3,C   4,H  15)          112.04  0.004059   -0.70    111.34   
    49. A(C   3,C   4,C   5)          112.91 -0.008480    1.52    114.42   
    50. A(C   4,C   5,H  17)          111.05 -0.003823    0.58    111.64   
    51. A(H  18,C   5,H  19)          108.82  0.004446   -0.69    108.13   
    52. A(H  17,C   5,H  19)          107.59  0.005623   -0.64    106.95   
    53. A(C   4,C   5,H  19)          107.73 -0.011263    1.83    109.56   
    54. A(H  17,C   5,H  18)          108.38  0.001916   -0.53    107.85   
    55. A(C   4,C   5,H  18)          113.11  0.003407   -0.59    112.52   
    56. D(H   9,C   1,C   0,H   8)    -89.69 -0.001664    1.14    -88.55   
    57. D(H  10,C   1,C   0,H   7)    -93.66  0.000219    0.39    -93.27   
    58. D(H   9,C   1,C   0,H   7)    153.14  0.000342    0.40    153.54   
    59. D(H  10,C   1,C   0,H   8)     23.51 -0.001787    1.13     24.64   
    60. D(H   9,C   1,C   0,H   6)     28.39 -0.003873    1.82     30.21   
    61. D(C   2,C   1,C   0,H   8)    148.34 -0.000157    0.66    149.00   
    62. D(C   2,C   1,C   0,H   7)     31.17  0.001849   -0.09     31.09   
    63. D(C   2,C   1,C   0,H   6)    -93.58 -0.002366    1.34    -92.25   
    64. D(H  10,C   1,C   0,H   6)    141.58 -0.003996    1.81    143.39   
    65. D(H  11,C   2,C   1,H   9)    -98.09  0.003810   -0.37    -98.46   
    66. D(C   3,C   2,C   1,H  10)    -89.28 -0.001363    0.88    -88.40   
    67. D(C   3,C   2,C   1,C   0)    146.68 -0.000804    0.93    147.60   
    68. D(H  11,C   2,C   1,C   0)     23.53  0.003069    0.02     23.56   
    69. D(H  11,C   2,C   1,H  10)    147.58  0.002511   -0.02    147.55   
    70. D(H  12,C   2,C   1,H  10)     25.79 -0.008347    3.44     29.23   
    71. D(H  12,C   2,C   1,H   9)    140.13 -0.007048    3.10    143.22   
    72. D(H  12,C   2,C   1,C   0)    -98.25 -0.007789    3.48    -94.77   
    73. D(C   3,C   2,C   1,H   9)     25.05 -0.000063    0.54     25.59   
    74. D(H  14,C   3,C   2,H  11)    139.56 -0.006569    3.00    142.56   
    75. D(H  14,C   3,C   2,C   1)     14.12 -0.009248    3.54     17.66   
    76. D(H  13,C   3,C   2,H  12)     16.08  0.005269   -1.16     14.92   
    77. D(H  13,C   3,C   2,H  11)   -103.10  0.000069    0.78   -102.32   
    78. D(H  13,C   3,C   2,C   1)    131.46 -0.002610    1.32    132.78   
    79. D(C   4,C   3,C   2,H  11)     21.28 -0.001020    1.47     22.75   
    80. D(C   4,C   3,C   2,H  12)    140.46  0.004180   -0.47    139.99   
    81. D(H  14,C   3,C   2,H  12)   -101.26 -0.001369    1.07   -100.19   
    82. D(C   4,C   3,C   2,C   1)   -104.16 -0.003699    2.01   -102.15   
    83. D(H  15,C   4,C   3,C   2)    -22.94 -0.000205   -0.41    -23.35   
    84. D(C   5,C   4,C   3,H  14)     95.26  0.003994   -1.95     93.31   
    85. D(C   5,C   4,C   3,H  13)    -21.56 -0.002498    0.18    -21.38   
    86. D(C   5,C   4,C   3,C   2)   -145.12  0.002481   -1.23   -146.35   
    87. D(H  16,C   4,C   3,H  14)    -22.35  0.007139   -3.10    -25.45   
    88. D(H  16,C   4,C   3,H  13)   -139.17  0.000647   -0.97   -140.14   
    89. D(H  16,C   4,C   3,C   2)     97.28  0.005626   -2.38     94.89   
    90. D(H  15,C   4,C   3,H  14)   -142.57  0.001308   -1.12   -143.69   
    91. D(H  15,C   4,C   3,H  13)    100.61 -0.005184    1.01    101.62   
    92. D(H  19,C   5,C   4,H  16)    -85.55 -0.002404    1.47    -84.09   
    93. D(H  19,C   5,C   4,H  15)     31.02  0.000452    0.29     31.31   
    94. D(H  19,C   5,C   4,C   3)    155.45  0.000181    0.56    156.01   
    95. D(H  18,C   5,C   4,H  16)    154.14 -0.002407    1.45    155.59   
    96. D(H  18,C   5,C   4,H  15)    -89.28  0.000448    0.27    -89.01   
    97. D(H  18,C   5,C   4,C   3)     35.15  0.000178    0.54     35.68   
    98. D(H  17,C   5,C   4,H  16)     32.03 -0.004520    2.13     34.15   
    99. D(H  17,C   5,C   4,H  15)    148.61 -0.001665    0.95    149.55   
   100. D(H  17,C   5,C   4,C   3)    -86.96 -0.001935    1.21    -85.75   
    ----------------------------------------------------------------------------

Time needed for optimization step       :     5.22 sec

         *************************************************************
         *                GEOMETRY OPTIMIZATION CYCLE   2            *
         *************************************************************
---------------------------------
CARTESIAN COORDINATES (ANGSTROEM)
---------------------------------
  C     -2.960193    0.348043    0.361914
  C     -1.730459   -0.548289    0.566492
  C     -0.704539   -0.495903   -0.575458
  C      0.759449   -0.693585   -0.074343
  C      1.541376    0.631201    0.011589
  C      3.040884    0.506317   -0.307514
  H     -2.785499    1.334366    0.823076
  H     -3.219599    0.459495   -0.707411
  H     -3.847808   -0.103956    0.848494
  H     -1.237569   -0.257878    1.515683
  H     -2.058718   -1.593349    0.738138
  H     -0.781029    0.442430   -1.143744
  H     -0.929625   -1.335483   -1.263461
  H      1.293517   -1.430508   -0.703779
  H      0.736029   -1.141644    0.936410
  H      1.110638    1.395131   -0.656205
  H      1.471311    1.015289    1.049355
  H      3.626389    0.218054    0.587992
  H      3.244559   -0.236381   -1.098484
  H      3.430887    1.486649   -0.646339

----------------------------
CARTESIAN COORDINATES (A.U.)
----------------------------
  NO LB      ZA    FRAG     MASS         X           Y           Z
   0 C     6.0000    0    12.011   -5.593954    0.657706    0.683919
   1 C     6.0000    0    12.011   -3.270093   -1.036116    1.070515
   2 C     6.0000    0    12.011   -1.331386   -0.937121   -1.087457
   3 C     6.0000    0    12.011    1.435151   -1.310685   -0.140487
   4 C     6.0000    0    12.011    2.912778    1.192798    0.021900
   5 C     6.0000    0    12.011    5.746438    0.956800   -0.581118
   6 H     1.0000    0     1.008   -5.263831    2.521587    1.555389
   7 H     1.0000    0     1.008   -6.084161    0.868319   -1.336813
   8 H     1.0000    0     1.008   -7.271303   -0.196449    1.603421
   9 H     1.0000    0     1.008   -2.338666   -0.487319    2.864226
  10 H     1.0000    0     1.008   -3.890413   -3.010994    1.394879
  11 H     1.0000    0     1.008   -1.475932    0.836072   -2.161363
  12 H     1.0000    0     1.008   -1.756736   -2.523697   -2.387595
  13 H     1.0000    0     1.008    2.444394   -2.703269   -1.329949
  14 H     1.0000    0     1.008    1.390892   -2.157395    1.769558
  15 H     1.0000    0     1.008    2.098801    2.636416   -1.240048
  16 H     1.0000    0     1.008    2.780374    1.918618    1.982994
  17 H     1.0000    0     1.008    6.852882    0.412063    1.111143
  18 H     1.0000    0     1.008    6.131327   -0.446696   -2.075834
  19 H     1.0000    0     1.008    6.483436    2.809360   -1.221404

--------------------------------
INTERNAL COORDINATES (ANGSTROEM)
--------------------------------
 C      0   0   0     0.000000000000     0.00000000     0.00000000
 C      1   0   0     1.535418228427     0.00000000     0.00000000
 C      2   1   0     1.536002596965   114.58066127     0.00000000
 C      3   2   1     1.559954248409   112.56175498   147.57074439
 C      4   3   2     1.540730708861   112.65849219   257.87337594
 C      5   4   3     1.538164008253   114.41657152   213.67300362
 H      1   2   3     1.102734120621   109.84913841   267.76515191
 H      1   2   3     1.105969849151   112.05567538    31.08495871
 H      1   2   3     1.108568096534   110.16801789   148.98792358
 H      2   1   3     1.108260973732   108.50222847   122.45378482
 H      2   1   3     1.108768387894   109.49586974   235.64086383
 H      3   2   1     1.099667582957   111.52124852    23.58877164
 H      3   2   1     1.108560688595   107.45539897   265.23672321
 H      4   3   2     1.106559556690   110.76970322   132.78365423
 H      4   3   2     1.105859884662   108.97027834    17.64896260
 H      5   4   3     1.102303574447   111.33348061   336.66994567
 H      5   4   3     1.108779023284   108.54116311    94.91502405
 H      6   5   4     1.108080411712   111.62800660   274.25523791
 H      6   5   4     1.103955108549   112.52714509    35.68422386
 H      6   5   4     1.108131447137   109.55471277   156.00306709

---------------------------
INTERNAL COORDINATES (A.U.)
---------------------------
 C      0   0   0     0.000000000000     0.00000000     0.00000000
 C      1   0   0     2.901519952757     0.00000000     0.00000000
 C      2   1   0     2.902624249255   114.58066127     0.00000000
 C      3   2   1     2.947886310939   112.56175498   147.57074439
 C      4   3   2     2.911559085869   112.65849219   257.87337594
 C      5   4   3     2.906708724652   114.41657152   213.67300362
 H      1   2   3     2.083865486505   109.84913841   267.76515191
[...]
  32   0.0000       0.148947         4.0530 
  33   0.0000       0.149963         4.0807 
  34   0.0000       0.150984         4.1085 
  35   0.0000       0.163676         4.4539 
  36   0.0000       0.173034         4.7085 
  37   0.0000       0.174662         4.7528 
  38   0.0000       0.180672         4.9163 
  39   0.0000       0.225320         6.1313 
  40   0.0000       0.243438         6.6243 
  41   0.0000       0.247506         6.7350 
  42   0.0000       0.259972         7.0742 
  43   0.0000       0.260291         7.0829 
  44   0.0000       0.411426        11.1955 
  45   0.0000       0.423655        11.5282 
  46   0.0000       0.431205        11.7337 
  47   0.0000       0.437586        11.9073 
  48   0.0000       0.440634        11.9903 
  49   0.0000       0.452134        12.3032 
  50   0.0000       0.493834        13.4379 
  51   0.0000       0.517853        14.0915 
  52   0.0000       0.547663        14.9027 
  53   0.0000       0.582799        15.8588 
  54   0.0000       0.638261        17.3680 
  55   0.0000       0.639177        17.3929 
  56   0.0000       0.652185        17.7469 
  57   0.0000       0.670037        18.2326 
  58   0.0000       0.678962        18.4755 
  59   0.0000       0.685506        18.6536 
  60   0.0000       0.691620        18.8199 
  61   0.0000       0.701885        19.0993 
  62   0.0000       0.707231        19.2447 
  63   0.0000       0.710434        19.3319 
  64   0.0000       0.716594        19.4995 
  65   0.0000       0.722018        19.6471 
  66   0.0000       0.723355        19.6835 
  67   0.0000       0.725066        19.7301 
  68   0.0000       0.730046        19.8656 
  69   0.0000       0.737105        20.0576 
  70   0.0000       0.750249        20.4153 
  71   0.0000       0.757048        20.6003 
  72   0.0000       0.758088        20.6286 
  73   0.0000       0.765983        20.8435 
  74   0.0000       0.775527        21.1032 
  75   0.0000       0.901260        24.5245 
  76   0.0000       0.995596        27.0915 
  77   0.0000       1.002822        27.2882 
  78   0.0000       1.043385        28.3920 
  79   0.0000       1.045379        28.4462 
  80   0.0000       1.143570        31.1181 
  81   0.0000       1.155010        31.4294 
  82   0.0000       1.427323        38.8394 
  83   0.0000       1.445582        39.3363 
  84   0.0000       1.548152        42.1274 
  85   0.0000       1.559186        42.4276 
  86   0.0000       1.719193        46.7816 
  87   0.0000       1.778270        48.3892 
  88   0.0000       1.841566        50.1116 
  89   0.0000       1.872535        50.9543 
  90   0.0000       1.875114        51.0244 
  91   0.0000       1.890109        51.4325 
  92   0.0000       1.932422        52.5839 
  93   0.0000       1.932788        52.5938 
  94   0.0000       1.949464        53.0476 
  95   0.0000       1.993733        54.2522 
  96   0.0000       2.033725        55.3405 
  97   0.0000       2.090409        56.8829 
  98   0.0000       2.111603        57.4596 
  99   0.0000       2.177157        59.2435 
 100   0.0000       2.179019        59.2941 
 101   0.0000       2.250846        61.2486 
 102   0.0000       2.258481        61.4564 
 103   0.0000       2.299817        62.5812 
 104   0.0000       2.303360        62.6776 
 105   0.0000       2.341761        63.7226 
 106   0.0000       2.397787        65.2471 
 107   0.0000       2.489288        67.7370 
 108   0.0000       2.575066        70.0711 
 109   0.0000       2.647799        72.0503 
 110   0.0000       2.698468        73.4291 
 111   0.0000       2.779162        75.6248 

                    ********************************
                    * MULLIKEN POPULATION ANALYSIS *
                    ********************************

------------------------------------------
FOD BASED MULLIKEN REDUCED ORBITAL CHARGES
------------------------------------------
  0 C s       :    -0.000000  s :    -0.000000
      pz      :     0.000000  p :     0.000000
      px      :     0.000000
      py      :     0.000000
      dz2     :     0.000000  d :     0.000000
      dxz     :     0.000000
      dyz     :     0.000000
      dx2y2   :     0.000000
      dxy     :     0.000000
  1 C s       :    -0.000000  s :    -0.000000
      pz      :     0.000000  p :     0.000000
      px      :     0.000000
      py      :     0.000000
      dz2     :     0.000000  d :     0.000000
      dxz     :     0.000000
      dyz     :     0.000000
      dx2y2   :     0.000000
      dxy     :     0.000000
  2 C s       :    -0.000000  s :    -0.000000
      pz      :     0.000000  p :     0.000000
      px      :     0.000000
      py      :     0.000000
      dz2     :     0.000000  d :     0.000000
      dxz     :     0.000000
      dyz     :     0.000000
      dx2y2   :     0.000000
      dxy     :     0.000000
  3 C s       :    -0.000000  s :    -0.000000
      pz      :     0.000000  p :     0.000000
      px      :     0.000000
      py      :     0.000000
      dz2     :     0.000000  d :     0.000000
      dxz     :     0.000000
      dyz     :     0.000000
      dx2y2   :     0.000000
      dxy     :     0.000000
  4 C s       :    -0.000000  s :    -0.000000
      pz      :     0.000000  p :     0.000000
      px      :     0.000000
      py      :     0.000000
      dz2     :     0.000000  d :     0.000000
      dxz     :     0.000000
      dyz     :     0.000000
      dx2y2   :     0.000000
      dxy     :     0.000000
  5 C s       :    -0.000000  s :    -0.000000
      pz      :     0.000000  p :     0.000000
      px      :     0.000000
      py      :     0.000000
      dz2     :     0.000000  d :     0.000000
      dxz     :     0.000000
      dyz     :     0.000000
      dx2y2   :     0.000000
      dxy     :     0.000000
  6 H s       :     0.000000  s :     0.000000
  7 H s       :     0.000000  s :     0.000000
  8 H s       :     0.000000  s :     0.000000
  9 H s       :     0.000000  s :     0.000000
 10 H s       :     0.000000  s :     0.000000
 11 H s       :     0.000000  s :     0.000000
 12 H s       :     0.000000  s :     0.000000
 13 H s       :     0.000000  s :     0.000000
 14 H s       :     0.000000  s :     0.000000
 15 H s       :     0.000000  s :     0.000000
 16 H s       :     0.000000  s :     0.000000
 17 H s       :     0.000000  s :     0.000000
 18 H s       :     0.000000  s :     0.000000
 19 H s       :     0.000000  s :     0.000000


                     *******************************
                     * LOEWDIN POPULATION ANALYSIS *
                     *******************************

-------------------------------------------
LOEWDIN ATOMIC CHARGES AND SPIN POPULATIONS
-------------------------------------------
   0 C :   -0.317040    0.000000
   1 C :   -0.221011    0.000000
   2 C :   -0.210212    0.000000
   3 C :   -0.210318    0.000000
   4 C :   -0.220711    0.000000
   5 C :   -0.317607    0.000000
   6 H :    0.108601    0.000000
   7 H :    0.107878    0.000000
   8 H :    0.110315    0.000000
   9 H :    0.106146    0.000000
  10 H :    0.105486    0.000000
  11 H :    0.104303    0.000000
  12 H :    0.105433    0.000000
  13 H :    0.105591    0.000000
  14 H :    0.104228    0.000000
  15 H :    0.105399    0.000000
  16 H :    0.106390    0.000000
  17 H :    0.108685    0.000000
  18 H :    0.107933    0.000000
  19 H :    0.110512    0.000000

----------------------------------------------------
LOEWDIN REDUCED ORBITAL CHARGES AND SPIN POPULATIONS
----------------------------------------------------
CHARGE
  0 C s       :     2.952454  s :     2.952454
      pz      :     1.109299  p :     3.291083
      px      :     1.069534
      py      :     1.112249
      dz2     :     0.010224  d :     0.073503
      dxz     :     0.016500
      dyz     :     0.016730
      dx2y2   :     0.016949
      dxy     :     0.013100
  1 C s       :     2.911951  s :     2.911951
      pz      :     1.073958  p :     3.218559
      px      :     1.051962
      py      :     1.092640
      dz2     :     0.013290  d :     0.090501
      dxz     :     0.018534
      dyz     :     0.024939
      dx2y2   :     0.020975
      dxy     :     0.012762
  2 C s       :     2.913704  s :     2.913704
      pz      :     1.070137  p :     3.206438
      px      :     1.048088
      py      :     1.088214
      dz2     :     0.013083  d :     0.090070
      dxz     :     0.018664
      dyz     :     0.024846
      dx2y2   :     0.019975
      dxy     :     0.013502
  3 C s       :     2.913539  s :     2.913539
      pz      :     1.085759  p :     3.206734
      px      :     1.047241
      py      :     1.073735
      dz2     :     0.015154  d :     0.090045
      dxz     :     0.014414
      dyz     :     0.021336
      dx2y2   :     0.022041
      dxy     :     0.017099
  4 C s       :     2.911735  s :     2.911735
      pz      :     1.091679  p :     3.218467
      px      :     1.050643
      py      :     1.076144
      dz2     :     0.017018  d :     0.090510
      dxz     :     0.013318
      dyz     :     0.020316
      dx2y2   :     0.022388
      dxy     :     0.017470
  5 C s       :     2.952558  s :     2.952558
      pz      :     1.112563  p :     3.291566
      px      :     1.069432
      py      :     1.109571
      dz2     :     0.013151  d :     0.073483
      dxz     :     0.013491
      dyz     :     0.015631
      dx2y2   :     0.015243
      dxy     :     0.015968
  6 H s       :     0.891399  s :     0.891399
  7 H s       :     0.892122  s :     0.892122
  8 H s       :     0.889685  s :     0.889685
  9 H s       :     0.893854  s :     0.893854
 10 H s       :     0.894514  s :     0.894514
 11 H s       :     0.895697  s :     0.895697
 12 H s       :     0.894567  s :     0.894567
 13 H s       :     0.894409  s :     0.894409
 14 H s       :     0.895772  s :     0.895772
 15 H s       :     0.894601  s :     0.894601
 16 H s       :     0.893610  s :     0.893610
 17 H s       :     0.891315  s :     0.891315
 18 H s       :     0.892067  s :     0.892067
 19 H s       :     0.889488  s :     0.889488

SPIN
  0 C s       :     0.000000  s :     0.000000
      pz      :     0.000000  p :     0.000000
      px      :     0.000000
      py      :     0.000000
      dz2     :     0.000000  d :     0.000000
      dxz     :     0.000000
      dyz     :     0.000000
      dx2y2   :     0.000000
      dxy     :     0.000000
  1 C s       :     0.000000  s :     0.000000
      pz      :     0.000000  p :     0.000000
      px      :     0.000000
      py      :     0.000000
      dz2     :     0.000000  d :     0.000000
      dxz     :     0.000000
      dyz     :     0.000000
      dx2y2   :     0.000000
      dxy     :     0.000000
  2 C s       :     0.000000  s :     0.000000
      pz      :     0.000000  p :     0.000000
      px      :     0.000000
      py      :     0.000000
      dz2     :     0.000000  d :     0.000000
      dxz     :     0.000000
      dyz     :     0.000000
      dx2y2   :     0.000000
      dxy     :     0.000000
  3 C s       :     0.000000  s :     0.000000
      pz      :     0.000000  p :     0.000000
      px      :     0.000000
      py      :     0.000000
      dz2     :     0.000000  d :     0.000000
      dxz     :     0.000000
      dyz     :     0.000000
      dx2y2   :     0.000000
      dxy     :     0.000000
  4 C s       :     0.000000  s :     0.000000
      pz      :     0.000000  p :     0.000000
      px      :     0.000000
      py      :     0.000000
      dz2     :     0.000000  d :     0.000000
      dxz     :     0.000000
      dyz     :     0.000000
      dx2y2   :     0.000000
      dxy     :     0.000000
  5 C s       :     0.000000  s :     0.000000
      pz      :     0.000000  p :     0.000000
      px      :     0.000000
      py      :     0.000000
      dz2     :     0.000000  d :     0.000000
      dxz     :     0.000000
      dyz     :     0.000000
      dx2y2   :     0.000000
      dxy     :     0.000000
  6 H s       :     0.000000  s :     0.000000
  7 H s       :     0.000000  s :     0.000000
  8 H s       :     0.000000  s :     0.000000
  9 H s       :     0.000000  s :     0.000000
 10 H s       :     0.000000  s :     0.000000
 11 H s       :     0.000000  s :     0.000000
 12 H s       :     0.000000  s :     0.000000
 13 H s       :     0.000000  s :     0.000000
 14 H s       :     0.000000  s :     0.000000
 15 H s       :     0.000000  s :     0.000000
 16 H s       :     0.000000  s :     0.000000
 17 H s       :     0.000000  s :     0.000000
 18 H s       :     0.000000  s :     0.000000
 19 H s       :     0.000000  s :     0.000000


                      *****************************
                      * MAYER POPULATION ANALYSIS *
                      *****************************

  NA   - Mulliken gross atomic population
  ZA   - Total nuclear charge
  QA   - Mulliken gross atomic charge
  VA   - Mayer's total valence
  BVA  - Mayer's bonded valence
  FA   - Mayer's free valence

  ATOM       NA         ZA         QA         VA         BVA        FA
  0 C      6.2314     6.0000    -0.2314     4.0047     4.0047     0.0000
  1 C      6.1848     6.0000    -0.1848     4.1265     4.1265     0.0000
  2 C      6.1285     6.0000    -0.1285     4.0826     4.0826     0.0000
  3 C      6.1248     6.0000    -0.1248     4.0838     4.0838     0.0000
  4 C      6.1786     6.0000    -0.1786     4.1265     4.1265     0.0000
  5 C      6.2363     6.0000    -0.2363     4.0055     4.0055     0.0000
  6 H      0.9147     1.0000     0.0853     0.9575     0.9575     0.0000
  7 H      0.9152     1.0000     0.0848     0.9576     0.9576     0.0000
  8 H      0.9105     1.0000     0.0895     0.9517     0.9517     0.0000
  9 H      0.9189     1.0000     0.0811     0.9488     0.9488     0.0000
 10 H      0.9286     1.0000     0.0714     0.9499     0.9499     0.0000
 11 H      0.9342     1.0000     0.0658     0.9556     0.9556     0.0000
 12 H      0.9349     1.0000     0.0651     0.9517     0.9517     0.0000
 13 H      0.9358     1.0000     0.0642     0.9516     0.9516     0.0000
 14 H      0.9352     1.0000     0.0648     0.9557     0.9557     0.0000
 15 H      0.9296     1.0000     0.0704     0.9501     0.9501     0.0000
 16 H      0.9194     1.0000     0.0806     0.9487     0.9487     0.0000
 17 H      0.9144     1.0000     0.0856     0.9576     0.9576     0.0000
 18 H      0.9149     1.0000     0.0851     0.9573     0.9573     0.0000
 19 H      0.9094     1.0000     0.0906     0.9515     0.9515     0.0000

  Mayer bond orders larger than 0.100000
B(  0-C ,  1-C ) :   1.1348 B(  0-C ,  6-H ) :   0.9600 B(  0-C ,  7-H ) :   0.9595 
B(  0-C ,  8-H ) :   0.9598 B(  1-C ,  2-C ) :   1.1099 B(  1-C ,  9-H ) :   0.9320 
B(  1-C , 10-H ) :   0.9368 B(  2-C ,  3-C ) :   1.1136 B(  2-C , 11-H ) :   0.9298 
B(  2-C , 12-H ) :   0.9318 B(  3-C ,  4-C ) :   1.1140 B(  3-C , 13-H ) :   0.9310 
B(  3-C , 14-H ) :   0.9288 B(  4-C ,  5-C ) :   1.1339 B(  4-C , 15-H ) :   0.9368 
B(  4-C , 16-H ) :   0.9310 B(  5-C , 17-H ) :   0.9604 B(  5-C , 18-H ) :   0.9596 
B(  5-C , 19-H ) :   0.9598 

-------
TIMINGS
-------

Total SCF time: 0 days 0 hours 3 min 20 sec 

Total time                  ....     200.711 sec
Sum of individual times     ....     162.159 sec  ( 80.8%)

Fock matrix formation       ....     135.497 sec  ( 67.5%)
  XC integration            ....      62.865 sec  ( 46.4% of F)
    Basis function eval.    ....       1.094 sec  (  1.7% of XC)
    Density eval.           ....       0.867 sec  (  1.4% of XC)
    XC-Functional eval.     ....       0.256 sec  (  0.4% of XC)
    XC-Potential eval.      ....       1.095 sec  (  1.7% of XC)
Diagonalization             ....       0.061 sec  (  0.0%)
Density matrix formation    ....       7.038 sec  (  3.5%)
Population analysis         ....      12.159 sec  (  6.1%)
Initial guess               ....       0.008 sec  (  0.0%)
Orbital Transformation      ....       0.000 sec  (  0.0%)
Orbital Orthonormalization  ....       0.004 sec  (  0.0%)
DIIS solution               ....       4.236 sec  (  2.1%)
Grid generation             ....       3.160 sec  (  1.6%)


-------------------------------------------------------------------------------
                          DFT DISPERSION CORRECTION                            
                                                                               
                              DFTD3 V3.1  Rev 1                                
                          USING Becke-Johnson damping                          
-------------------------------------------------------------------------------
The B3LYP functional is recognized
Active option DFTDOPT                   ...         4   

molecular C6(AA) [au] = 2518.997624 


            DFT-D V3
 parameters
 s6 scaling factor         :     1.0000 
 a1 scaling factor         :     0.3981 
 s8 scaling factor         :     1.9889 
 a2 scaling factor         :     4.4211 
 ad hoc parameters k1-k3   :    16.0000     1.3333    -4.0000 

 Edisp/kcal,au: -15.389590861191  -0.024524871505 
 E6   /kcal   :  -7.728417989 
 E8   /kcal   :  -7.661172872 
 % E8         :  49.781524026 

-------------------------   ----------------
Dispersion correction           -0.024524872
-------------------------   ----------------


-------------------------   --------------------
FINAL SINGLE POINT ENERGY      -236.723217574409
-------------------------   --------------------

                                *** OPTIMIZATION RUN DONE ***

                            ***************************************
                            *     ORCA property calculations      *
                            ***************************************

                                    ---------------------
                                    Active property flags
                                    ---------------------
   (+) Dipole Moment


------------------------------------------------------------------------------
                       ORCA ELECTRIC PROPERTIES CALCULATION
------------------------------------------------------------------------------

Dipole Moment Calculation                       ... on
Quadrupole Moment Calculation                   ... off
Polarizability Calculation                      ... off
GBWName                                         ... orca3.gbw
Electron density file                           ... orca3.scfp
The origin for moment calculation is the CENTER OF MASS  = (-0.001183, -0.025667 -0.008425)

-------------
DIPOLE MOMENT
-------------
                                X             Y             Z
Electronic contribution:     -0.01221      -0.26720      -0.34645
Nuclear contribution   :      0.01282       0.27820       0.36005
                        -----------------------------------------
Total Dipole Moment    :      0.00061       0.01101       0.01361
                        -----------------------------------------
Magnitude (a.u.)       :      0.01751
Magnitude (Debye)      :      0.04451



--------------------
Rotational spectrum 
--------------------
 
Rotational constants in cm-1:     0.337473     0.043060     0.040859 
Rotational constants in MHz : 10117.172237  1290.905876  1224.909113 

 Dipole components along the rotational axes: 
x,y,z [a.u.] :    -0.000177     0.017508     0.000256 
x,y,z [Debye]:    -0.000450     0.044502     0.000649 

 

Timings for individual modules:

Sum of individual times         ...     6066.661 sec (= 101.111 min)
GTO integral calculation        ...      164.328 sec (=   2.739 min)   2.7 %
SCF iterations                  ...     5577.790 sec (=  92.963 min)  91.9 %
SCF Gradient evaluation         ...      229.629 sec (=   3.827 min)   3.8 %
Geometry relaxation             ...       94.914 sec (=   1.582 min)   1.6 %
                             ****ORCA TERMINATED NORMALLY****
TOTAL RUN TIME: 0 days 1 hours 44 minutes 47 seconds 68 msec
