
                                 *****************
                                 * O   R   C   A *
                                 *****************

           --- An Ab Initio, DFT and Semiempirical electronic structure package ---

                  #######################################################
                  #                        -***-                        #
                  #          Department of theory and spectroscopy      #
                  #               Directorship: Frank Neese             #
                  #        Max Planck Institute fuer Kohlenforschung    #
                  #                Kaiser Wilhelm Platz 1               #
                  #                 D-45470 Muelheim/Ruhr               #
                  #                      Germany                        #
                  #                                                     #
                  #                  All rights reserved                #
                  #                        -***-                        #
                  #######################################################


                         Program Version 4.2.1 -  RELEASE  -


 With contributions from (in alphabetic order):
   Daniel Aravena         : Magnetic Suceptibility
   Michael Atanasov       : Ab Initio Ligand Field Theory (pilot matlab implementation)
   Alexander A. Auer      : GIAO ZORA, VPT2
   Ute Becker             : Parallelization
   Giovanni Bistoni       : ED, misc. LED, open-shell LED, HFLD
   Martin Brehm           : Molecular dynamics
   Dmytro Bykov           : SCF Hessian
   Vijay G. Chilkuri      : MRCI spin determinant printing, contributions to CSF-ICE
   Dipayan Datta          : RHF DLPNO-CCSD density
   Achintya Kumar Dutta   : EOM-CC, STEOM-CC
   Dmitry Ganyushin       : Spin-Orbit,Spin-Spin,Magnetic field MRCI
   Miquel Garcia          : C-PCM Hessian, Gaussian charge scheme
   Yang Guo               : DLPNO-NEVPT2, CIM, IAO-localization
   Andreas Hansen         : Spin unrestricted coupled pair/coupled cluster methods
   Benjamin Helmich-Paris : CASSCF linear response (MC-RPA)
   Lee Huntington         : MR-EOM, pCC
   Robert Izsak           : Overlap fitted RIJCOSX, COSX-SCS-MP3, EOM
   Christian Kollmar      : KDIIS, OOCD, Brueckner-CCSD(T), CCSD density
   Simone Kossmann        : Meta GGA functionals, TD-DFT gradient, OOMP2, MP2 Hessian
   Martin Krupicka        : AUTO-CI
   Lucas Lang             : DCDCAS
   Dagmar Lenk            : GEPOL surface, SMD
   Dimitrios Liakos       : Extrapolation schemes; Compound Job, initial MDCI parallelization
   Dimitrios Manganas     : Further ROCIS development; embedding schemes
   Dimitrios Pantazis     : SARC Basis sets
   Taras Petrenko         : DFT Hessian,TD-DFT gradient, ASA, ECA, R-Raman, ABS, FL, XAS/XES, NRVS
   Peter Pinski           : DLPNO-MP2, DLPNO-MP2 Gradient
   Christoph Reimann      : Effective Core Potentials
   Marius Retegan         : Local ZFS, SOC
   Christoph Riplinger    : Optimizer, TS searches, QM/MM, DLPNO-CCSD(T), (RO)-DLPNO pert. Triples
   Tobias Risthaus        : Range-separated hybrids, TD-DFT gradient, RPA, STAB
   Michael Roemelt        : Original ROCIS implementation
   Masaaki Saitow         : Open-shell DLPNO-CCSD energy and density
   Barbara Sandhoefer     : DKH picture change effects
   Avijit Sen             : IP-ROCIS
   Kantharuban Sivalingam : CASSCF convergence, NEVPT2, FIC-MRCI
   Bernardo de Souza      : ESD, SOC TD-DFT
   Georgi Stoychev        : AutoAux, RI-MP2 NMR
   Willem Van den Heuvel  : Paramagnetic NMR
   Boris Wezisla          : Elementary symmetry handling
   Frank Wennmohs         : Technical directorship


 We gratefully acknowledge several colleagues who have allowed us to
 interface, adapt or use parts of their codes:
   Stefan Grimme, W. Hujo, H. Kruse,             : VdW corrections, initial TS optimization,
                  C. Bannwarth                     DFT functionals, gCP, sTDA/sTD-DF
   Ed Valeev, F. Pavosevic, A. Kumar             : LibInt (2-el integral package), F12 methods
   Garnet Chan, S. Sharma, J. Yang, R. Olivares  : DMRG
   Ulf Ekstrom                                   : XCFun DFT Library
   Mihaly Kallay                                 : mrcc  (arbitrary order and MRCC methods)
   Andreas Klamt, Michael Diedenhofen            : otool_cosmo (COSMO solvation model)
   Jiri Pittner, Ondrej Demel                    : Mk-CCSD
   Frank Weinhold                                : gennbo (NPA and NBO analysis)
   Christopher J. Cramer and Donald G. Truhlar   : smd solvation model
   Lars Goerigk                                  : TD-DFT with DH, B97 family of functionals
   V. Asgeirsson, H. Jonsson                     : NEB implementation
   FAccTs GmbH                                   : IRC, NEB, NEB-TS, Multilevel, MM, QM/MM, CI optimization
   S Lehtola, MJT Oliveira, MAL Marques          : LibXC Library


 Your calculation uses the libint2 library for the computation of 2-el integrals
 For citations please refer to: http://libint.valeyev.net

 Your ORCA version has been built with support for libXC version: 4.2.3
 For citations please refer to: https://tddft.org/programs/libxc/

 This ORCA versions uses:
   CBLAS   interface :  Fast vector & matrix operations
   LAPACKE interface :  Fast linear algebra routines
   SCALAPACK package :  Parallel linear algebra routines


Your calculation utilizes the atom-pairwise dispersion correction
with the Becke-Johnson damping scheme (D3BJ)
Cite in your paper:
S.Grimme, S.Ehrlich, L.Goerigk, J Comput Chem, (2011), 32, 1456–1465 
S.Grimme, J.Antony, S.Ehrlich and H.Krieg, J.Chem.Phys., 132, (2010), 154104 
   

----- Orbital basis set information -----
Your calculation utilizes the basis: def2-SV(P)
   F. Weigend and R. Ahlrichs, Phys. Chem. Chem. Phys. 7, 3297 (2005).

----- AuxJ basis set information -----
Your calculation utilizes the auxiliary basis: def2/J
   F. Weigend, Phys. Chem. Chem. Phys. 8, 1057 (2006).

================================================================================
                                        WARNINGS
                       Please study these warnings very carefully!
================================================================================


WARNING: Geometry Optimization
  ===> : Switching off AutoStart
         For restart on a previous wavefunction, please use MOREAD

INFO   : the flag for use of LIBINT has been found!

================================================================================
                                       INPUT FILE
================================================================================
NAME = orca2.inp
|  1> ! UKS B3LYP def2-SV(P) def2/J D3BJ Opt
|  2> %scf Convergence VeryTight
|  3> SmearTemp 2000
|  4> maxiter 500
|  5> end
|  6> *xyz 0 1
|  7> C 4.979583 0.201329 -0.812473
|  8> C 4.161316 -0.219287 0.40327
|  9> C 2.727402 0.17889 0.186034
| 10> C 1.814315 -1.026488 0.000172
| 11> C 0.536519 -0.63629 -0.683362
| 12> C -0.666502 -0.668745 0.239154
| 13> C -1.487598 0.54907 -0.076646
| 14> C -2.800774 0.607633 0.640058
| 15> C -3.932191 0.010469 -0.190565
| 16> C -5.237969 0.439882 0.464872
| 17> H 4.633952 -0.313989 -1.724247
| 18> H 4.932461 1.313903 -0.900199
| 19> H 6.05434 -0.027675 -0.608181
| 20> H 4.55204 0.407374 1.244645
| 21> H 4.292633 -1.303297 0.597228
| 22> H 2.622712 0.813651 -0.729693
| 23> H 2.332645 0.812021 1.020066
| 24> H 2.354937 -1.712016 -0.700701
| 25> H 1.641831 -1.54948 0.974761
| 26> H 0.697827 0.383698 -1.11593
| 27> H 0.28511 -1.307013 -1.542413
| 28> H -0.369781 -0.598979 1.312239
| 29> H -1.275217 -1.597476 0.102594
| 30> H -0.877017 1.434074 0.228134
| 31> H -1.676168 0.529664 -1.173147
| 32> H -3.064914 1.691511 0.74001
| 33> H -2.787348 0.187966 1.657963
| 34> H -3.898522 0.50655 -1.17181
| 35> H -3.848289 -1.092804 -0.239204
| 36> H -5.580208 -0.299417 1.207745
| 37> H -6.031489 0.615927 -0.301615
| 38> H -5.085636 1.436507 0.95124
| 39> *
| 40> 
| 41>                          ****END OF INPUT****
================================================================================

                       *****************************
                       * Geometry Optimization Run *
                       *****************************

Geometry optimization settings:
Update method            Update   .... BFGS
Choice of coordinates    CoordSys .... Z-matrix Internals
Initial Hessian          InHess   .... Almoef's Model

Convergence Tolerances:
Energy Change            TolE     ....  5.0000e-06 Eh
Max. Gradient            TolMAXG  ....  3.0000e-04 Eh/bohr
RMS Gradient             TolRMSG  ....  1.0000e-04 Eh/bohr
Max. Displacement        TolMAXD  ....  4.0000e-03 bohr
RMS Displacement         TolRMSD  ....  2.0000e-03 bohr
Strict Convergence                ....  False
------------------------------------------------------------------------------
                        ORCA OPTIMIZATION COORDINATE SETUP
------------------------------------------------------------------------------

The optimization will be done in new redundant internal coordinates
Making redundant internal coordinates   ...  (new redundants) done
Evaluating the initial hessian          ...  (Almloef) done
Evaluating the coordinates              ...  done
Calculating the B-matrix                .... done
Calculating the G-matrix                .... done
Diagonalizing the G-matrix              .... done
Small eigenvalue found = 4.222e-03
Small eigenvalue found = 7.193e-03
Small eigenvalue found = 1.654e-02
Small eigenvalue found = 2.788e-02
The first mode is                       ....   82
The number of degrees of freedom        ....   90

    -----------------------------------------------------------------
                    Redundant Internal Coordinates


    -----------------------------------------------------------------
         Definition                    Initial Value    Approx d2E/dq
    -----------------------------------------------------------------
      1. B(C   1,C   0)                  1.5246         0.381012   
      2. B(C   2,C   1)                  1.5039         0.411102   
      3. B(C   3,C   2)                  1.5236         0.382530   
      4. B(C   4,C   3)                  1.5007         0.415960   
      5. B(C   5,C   4)                  1.5164         0.392770   
      6. B(C   6,C   5)                  1.5023         0.413542   
      7. B(C   7,C   6)                  1.4972         0.421455   
      8. B(C   8,C   7)                  1.5253         0.380033   
      9. B(C   9,C   8)                  1.5228         0.383528   
     10. B(H  10,C   0)                  1.1029         0.343458   
     11. B(H  11,C   0)                  1.1170         0.326071   
     12. B(H  12,C   0)                  1.1177         0.325245   
     13. B(H  13,C   1)                  1.1195         0.323115   
     14. B(H  14,C   1)                  1.1090         0.335789   
     15. B(H  15,C   2)                  1.1191         0.323563   
     16. B(H  16,C   2)                  1.1191         0.323637   
     17. B(H  17,C   3)                  1.1196         0.323029   
     18. B(H  18,C   3)                  1.1194         0.323214   
     19. B(H  19,C   4)                  1.1196         0.322993   
     20. B(H  20,C   4)                  1.1185         0.324303   
     21. B(H  21,C   5)                  1.1155         0.327854   
     22. B(H  22,C   5)                  1.1188         0.323942   
     23. B(H  23,C   6)                  1.1176         0.325431   
     24. B(H  24,C   6)                  1.1128         0.331208   
     25. B(H  25,C   7)                  1.1201         0.322442   
     26. B(H  26,C   7)                  1.1011         0.345706   
     27. B(H  27,C   8)                  1.1000         0.347070   
     28. B(H  28,C   8)                  1.1075         0.337644   
     29. B(H  29,C   9)                  1.1025         0.343912   
     30. B(H  30,C   9)                  1.1172         0.325840   
     31. B(H  31,C   9)                  1.1194         0.323253   
     32. A(C   1,C   0,H  12)          108.2884         0.319987   
     33. A(C   1,C   0,H  11)          108.3466         0.320119   
     34. A(H  11,C   0,H  12)          105.0101         0.281860   
     35. A(C   1,C   0,H  10)          111.2309         0.322853   
     36. A(H  10,C   0,H  11)          112.7828         0.284253   
     37. A(H  10,C   0,H  12)          110.8988         0.284141   
     38. A(H  13,C   1,H  14)          111.9856         0.282857   
     39. A(C   2,C   1,H  14)          113.3869         0.325698   
     40. A(C   0,C   1,H  14)          110.2163         0.321661   
     41. A(C   0,C   1,H  13)          104.9248         0.319644   
     42. A(C   0,C   1,C   2)          108.8739         0.370614   
     43. A(C   2,C   1,H  13)          107.0450         0.323646   
     44. A(C   3,C   2,H  15)          107.0292         0.319924   
     45. A(C   3,C   2,H  16)          109.0943         0.319936   
     46. A(C   1,C   2,H  16)          112.2388         0.323732   
     47. A(C   1,C   2,H  15)          110.9498         0.323719   
     48. A(C   1,C   2,C   3)          112.3067         0.370868   
     49. A(H  15,C   2,H  16)          104.8293         0.281307   
     50. A(C   4,C   3,H  18)          112.7565         0.324287   
     51. A(C   4,C   3,H  17)          106.5720         0.324257   
     52. A(C   2,C   3,C   4)          111.1088         0.371618   
     53. A(C   2,C   3,H  17)          105.7482         0.319837   
     54. A(C   2,C   3,H  18)          110.8405         0.319867   
     55. A(H  17,C   3,H  18)          109.4727         0.281178   
     56. A(C   5,C   4,H  19)          111.6450         0.321216   
     57. A(C   3,C   4,H  19)          106.8681         0.324251   
     58. A(C   3,C   4,C   5)          113.1315         0.373313   
     59. A(C   5,C   4,H  20)          106.0272         0.321429   
     60. A(C   3,C   4,H  20)          112.6611         0.324466   
     61. A(H  19,C   4,H  20)          106.3769         0.281320   
     62. A(C   4,C   5,C   6)          106.7607         0.372938   
     63. A(C   6,C   5,H  22)          110.4800         0.324096   
     64. A(C   4,C   5,H  22)          112.0341         0.321370   
     65. A(C   6,C   5,H  21)          107.2707         0.324736   
     66. A(C   4,C   5,H  21)          111.8921         0.322002   
     67. A(H  21,C   5,H  22)          108.3033         0.281923   
     68. A(C   5,C   6,C   7)          114.2337         0.377505   
     69. A(H  23,C   6,H  24)          112.0323         0.282568   
     70. A(C   7,C   6,H  24)          108.8902         0.326296   
     71. A(C   5,C   6,H  24)          106.5956         0.325280   
     72. A(C   7,C   6,H  23)          108.5227         0.325352   
     73. A(C   5,C   6,H  23)          106.6186         0.324341   
     74. A(C   6,C   7,C   8)          111.9995         0.372039   
     75. A(H  25,C   7,H  26)          106.8100         0.284047   
     76. A(C   8,C   7,H  26)          111.2991         0.323062   
     77. A(C   6,C   7,H  26)          114.6410         0.328608   
     78. A(C   8,C   7,H  25)          104.6266         0.319401   
     79. A(C   6,C   7,H  25)          106.7032         0.324859   
     80. A(H  27,C   8,H  28)          114.0632         0.286267   
     81. A(C   9,C   8,H  28)          111.3927         0.322299   
     82. A(C   7,C   8,H  28)          110.9600         0.321816   
     83. A(C   9,C   8,H  27)          106.4397         0.323757   
     84. A(C   7,C   8,H  27)          106.6480         0.323271   
     85. A(C   7,C   8,C   9)          106.9328         0.366062   
     86. A(H  30,C   9,H  31)          104.7415         0.281561   
     87. A(H  29,C   9,H  31)          110.2733         0.283928   
     88. A(C   8,C   9,H  31)          108.7462         0.320010   
     89. A(H  29,C   9,H  30)          110.3318         0.284280   
     90. A(C   8,C   9,H  30)          110.9880         0.320427   
     91. A(C   8,C   9,H  29)          111.5362         0.323272   
     92. D(C   2,C   1,C   0,H  11)     62.3290         0.011567   
     93. D(C   2,C   1,C   0,H  12)    175.7181         0.011567   
     94. D(H  13,C   1,C   0,H  11)    -51.9836         0.011567   
     95. D(H  14,C   1,C   0,H  11)   -172.7164         0.011567   
     96. D(H  13,C   1,C   0,H  10)   -176.4913         0.011567   
     97. D(C   2,C   1,C   0,H  10)    -62.1787         0.011567   
     98. D(H  14,C   1,C   0,H  12)    -59.3273         0.011567   
     99. D(H  14,C   1,C   0,H  10)     62.7759         0.011567   
    100. D(H  13,C   1,C   0,H  12)     61.4055         0.011567   
    101. D(C   3,C   2,C   1,H  13)   -135.6458         0.013386   
    102. D(C   3,C   2,C   1,H  14)    -11.6444         0.013386   
    103. D(H  15,C   2,C   1,H  13)    104.6165         0.013386   
    104. D(H  15,C   2,C   1,H  14)   -131.3821         0.013386   
    105. D(C   3,C   2,C   1,C   0)    111.4306         0.013386   
    106. D(H  16,C   2,C   1,H  13)    -12.2958         0.013386   
    107. D(H  16,C   2,C   1,H  14)    111.7056         0.013386   
    108. D(H  16,C   2,C   1,C   0)   -125.2194         0.013386   
    109. D(H  15,C   2,C   1,C   0)     -8.3071         0.013386   
    110. D(H  18,C   3,C   2,C   1)     74.0516         0.011655   
    111. D(H  17,C   3,C   2,H  16)   -169.5944         0.011655   
    112. D(H  18,C   3,C   2,H  15)   -163.9529         0.011655   
    113. D(H  17,C   3,C   2,H  15)     77.4954         0.011655   
    114. D(C   4,C   3,C   2,H  15)    -37.7517         0.011655   
    115. D(H  17,C   3,C   2,C   1)    -44.5002         0.011655   
    116. D(H  18,C   3,C   2,H  16)    -51.0426         0.011655   
    117. D(C   4,C   3,C   2,H  16)     75.1586         0.011655   
    118. D(C   4,C   3,C   2,C   1)   -159.7472         0.011655   
    119. D(C   5,C   4,C   3,H  18)     16.3165         0.013696   
    120. D(C   5,C   4,C   3,H  17)    136.4482         0.013696   
    121. D(H  19,C   4,C   3,C   2)     14.4584         0.013696   
    122. D(C   5,C   4,C   3,C   2)   -108.8169         0.013696   
    123. D(H  20,C   4,C   3,H  18)   -103.9288         0.013696   
    124. D(H  20,C   4,C   3,H  17)     16.2029         0.013696   
    125. D(H  20,C   4,C   3,C   2)    130.9378         0.013696   
    126. D(H  19,C   4,C   3,H  18)    139.5918         0.013696   
    127. D(H  19,C   4,C   3,H  17)   -100.2765         0.013696   
    128. D(H  22,C   5,C   4,H  20)     23.4406         0.012257   
    129. D(H  22,C   5,C   4,H  19)    138.8833         0.012257   
    130. D(H  22,C   5,C   4,C   3)   -100.5197         0.012257   
    131. D(H  21,C   5,C   4,H  20)    145.2944         0.012257   
    132. D(H  21,C   5,C   4,H  19)    -99.2629         0.012257   
    133. D(H  21,C   5,C   4,C   3)     21.3341         0.012257   
    134. D(C   6,C   5,C   4,H  20)    -97.6293         0.012257   
    135. D(C   6,C   5,C   4,H  19)     17.8134         0.012257   
    136. D(C   6,C   5,C   4,C   3)    138.4104         0.012257   
    137. D(H  24,C   6,C   5,H  22)    -68.6476         0.013541   
    138. D(H  24,C   6,C   5,H  21)    173.5008         0.013541   
    139. D(H  24,C   6,C   5,C   4)     53.4066         0.013541   
    140. D(H  23,C   6,C   5,H  22)    171.5210         0.013541   
    141. D(H  23,C   6,C   5,H  21)     53.6693         0.013541   
    142. D(H  23,C   6,C   5,C   4)    -66.4249         0.013541   
    143. D(C   7,C   6,C   5,H  22)     51.6589         0.013541   
    144. D(C   7,C   6,C   5,H  21)    -66.1927         0.013541   
    145. D(C   7,C   6,C   5,C   4)    173.7131         0.013541   
    146. D(H  26,C   7,C   6,H  23)    -84.0458         0.014052   
    147. D(H  26,C   7,C   6,C   5)     34.7429         0.014052   
    148. D(H  25,C   7,C   6,H  24)    -88.2164         0.014052   
    149. D(H  25,C   7,C   6,H  23)     33.9777         0.014052   
    150. D(H  25,C   7,C   6,C   5)    152.7664         0.014052   
    151. D(C   8,C   7,C   6,H  24)     25.7112         0.014052   
    152. D(C   8,C   7,C   6,H  23)    147.9053         0.014052   
    153. D(H  26,C   7,C   6,H  24)    153.7601         0.014052   
    154. D(C   8,C   7,C   6,C   5)    -93.3060         0.014052   
    155. D(H  28,C   8,C   7,H  26)    -57.3082         0.011511   
    156. D(H  28,C   8,C   7,C   6)     72.4949         0.011511   
    157. D(H  27,C   8,C   7,H  26)    177.9217         0.011511   
    158. D(H  27,C   8,C   7,H  25)     62.9265         0.011511   
    159. D(H  27,C   8,C   7,C   6)    -52.2752         0.011511   
    160. D(C   9,C   8,C   7,H  26)     64.3553         0.011511   
    161. D(H  28,C   8,C   7,H  25)   -172.3034         0.011511   
    162. D(C   9,C   8,C   7,H  25)    -50.6400         0.011511   
    163. D(C   9,C   8,C   7,C   6)   -165.8416         0.011511   
    164. D(H  31,C   9,C   8,H  28)    151.9942         0.011712   
    165. D(H  31,C   9,C   8,H  27)    -83.1038         0.011712   
    166. D(H  31,C   9,C   8,C   7)     30.6041         0.011712   
    167. D(H  30,C   9,C   8,H  28)    -93.2973         0.011712   
    168. D(H  30,C   9,C   8,H  27)     31.6047         0.011712   
    169. D(H  30,C   9,C   8,C   7)    145.3125         0.011712   
    170. D(H  29,C   9,C   8,H  28)     30.1706         0.011712   
    171. D(H  29,C   9,C   8,H  27)    155.0726         0.011712   
    172. D(H  29,C   9,C   8,C   7)    -91.2195         0.011712   
    -----------------------------------------------------------------

Number of atoms                         .... 32
Number of degrees of freedom            .... 172

Time needed for optimization step       :     1.57 sec

         *************************************************************
         *                GEOMETRY OPTIMIZATION CYCLE   1            *
         *************************************************************
---------------------------------
CARTESIAN COORDINATES (ANGSTROEM)
---------------------------------
  C      4.979583    0.201329   -0.812473
  C      4.161316   -0.219287    0.403270
  C      2.727402    0.178890    0.186034
  C      1.814315   -1.026488    0.000172
  C      0.536519   -0.636290   -0.683362
  C     -0.666502   -0.668745    0.239154
  C     -1.487598    0.549070   -0.076646
  C     -2.800774    0.607633    0.640058
  C     -3.932191    0.010469   -0.190565
  C     -5.237969    0.439882    0.464872
  H      4.633952   -0.313989   -1.724247
  H      4.932461    1.313903   -0.900199
  H      6.054340   -0.027675   -0.608181
  H      4.552040    0.407374    1.244645
  H      4.292633   -1.303297    0.597228
  H      2.622712    0.813651   -0.729693
  H      2.332645    0.812021    1.020066
  H      2.354937   -1.712016   -0.700701
  H      1.641831   -1.549480    0.974761
  H      0.697827    0.383698   -1.115930
  H      0.285110   -1.307013   -1.542413
  H     -0.369781   -0.598979    1.312239
  H     -1.275217   -1.597476    0.102594
  H     -0.877017    1.434074    0.228134
  H     -1.676168    0.529664   -1.173147
  H     -3.064914    1.691511    0.740010
  H     -2.787348    0.187966    1.657963
  H     -3.898522    0.506550   -1.171810
  H     -3.848289   -1.092804   -0.239204
  H     -5.580208   -0.299417    1.207745
  H     -6.031489    0.615927   -0.301615
  H     -5.085636    1.436507    0.951240

----------------------------
CARTESIAN COORDINATES (A.U.)
----------------------------
  NO LB      ZA    FRAG     MASS         X           Y           Z
   0 C     6.0000    0    12.011    9.410048    0.380457   -1.535351
   1 C     6.0000    0    12.011    7.863748   -0.414392    0.762070
   2 C     6.0000    0    12.011    5.154043    0.338053    0.351553
   3 C     6.0000    0    12.011    3.428558   -1.939781    0.000325
   4 C     6.0000    0    12.011    1.013874   -1.202414   -1.291367
   5 C     6.0000    0    12.011   -1.259506   -1.263745    0.451936
   6 C     6.0000    0    12.011   -2.811153    1.037592   -0.144840
   7 C     6.0000    0    12.011   -5.292696    1.148260    1.209534
   8 C     6.0000    0    12.011   -7.430764    0.019784   -0.360116
   9 C     6.0000    0    12.011   -9.898327    0.831257    0.878481
  10 H     1.0000    0     1.008    8.756900   -0.593353   -3.258355
  11 H     1.0000    0     1.008    9.321000    2.482917   -1.701130
  12 H     1.0000    0     1.008   11.441045   -0.052298   -1.149296
  13 H     1.0000    0     1.008    8.602109    0.769825    2.352038
  14 H     1.0000    0     1.008    8.111901   -2.462874    1.128597
  15 H     1.0000    0     1.008    4.956207    1.537578   -1.378920
  16 H     1.0000    0     1.008    4.408060    1.534497    1.927645
  17 H     1.0000    0     1.008    4.450186   -3.235241   -1.324133
  18 H     1.0000    0     1.008    3.102611   -2.928093    1.842031
  19 H     1.0000    0     1.008    1.318702    0.725084   -2.108802
  20 H     1.0000    0     1.008    0.538780   -2.469897   -2.914738
  21 H     1.0000    0     1.008   -0.698785   -1.131906    2.479772
  22 H     1.0000    0     1.008   -2.409811   -3.018792    0.193875
  23 H     1.0000    0     1.008   -1.657322    2.710007    0.431111
  24 H     1.0000    0     1.008   -3.167498    1.000920   -2.216927
  25 H     1.0000    0     1.008   -5.791848    3.196493    1.398416
  26 H     1.0000    0     1.008   -5.267324    0.355204    3.133096
  27 H     1.0000    0     1.008   -7.367139    0.957241   -2.214400
  28 H     1.0000    0     1.008   -7.272212   -2.065100   -0.452030
  29 H     1.0000    0     1.008  -10.545065   -0.565816    2.282307
  30 H     1.0000    0     1.008  -11.397862    1.163933   -0.569970
  31 H     1.0000    0     1.008   -9.610459    2.714605    1.797583

--------------------------------
INTERNAL COORDINATES (ANGSTROEM)
--------------------------------
 C      0   0   0     0.000000000000     0.00000000     0.00000000
 C      1   0   0     1.524634298707     0.00000000     0.00000000
 C      2   1   0     1.503943403995   108.87387732     0.00000000
 C      3   2   1     1.523551336679   112.30673472   111.43057142
 C      4   3   2     1.500745090272   111.10877629   200.25276988
 C      5   4   3     1.516360321204   113.13149726   251.18309461
 C      6   5   4     1.502332072293   106.76071069   138.41037294
 C      7   6   5     1.497172486910   114.23373685   173.71306585
 C      8   7   6     1.525334008968   111.99952604   266.69396740
 C      9   8   7     1.522842529884   106.93281234   194.15836474
 H      1   2   3     1.102880436113   111.23090666   297.82134987
 H      1   2   3     1.117021593093   108.34662635    62.32902263
 H      1   2   3     1.117712244869   108.28844026   175.71813214
 H      2   1   3     1.119500399161   104.92480108   245.68734707
 H      2   1   3     1.109027294683   110.21629881   124.95454224
 H      3   2   1     1.119123523902   110.94983504   351.69289809
 H      3   2   1     1.119060913996   112.23884693   234.78055304
 H      4   3   2     1.119573020306   105.74817856   315.49980998
 H      4   3   2     1.119417295400   110.84045678    74.05157530
 H      5   4   3     1.119602994651   106.86808524    14.45839750
 H      5   4   3     1.118500982839   112.66112534   130.93777965
 H      6   5   4     1.115536670765   111.89206674    21.33407500
 H      6   5   4     1.118804654614   112.03409454   259.48028466
 H      7   6   5     1.117556301032   106.61859608   293.57514067
 H      7   6   5     1.112766678481   106.59563871    53.40657063
 H      8   7   6     1.120067792943   106.70316166   152.76635452
 H      8   7   6     1.101104553342   114.64098202    34.74289211
 H      9   8   7     1.100032595038   106.64803324   307.72480553
 H      9   8   7     1.107527250434   110.96000405    72.49493057
 H     10   9   8     1.102520221425   111.53621979   268.78045178
 H     10   9   8     1.117214461773   110.98797724   145.31254633
 H     10   9   8     1.119384011382   108.74623293    30.60405246

---------------------------
INTERNAL COORDINATES (A.U.)
---------------------------
 C      0   0   0     0.000000000000     0.00000000     0.00000000
 C      1   0   0     2.881141278939     0.00000000     0.00000000
 C      2   1   0     2.842041154468   108.87387732     0.00000000
 C      3   2   1     2.879094777293   112.30673472   111.43057142
 C      4   3   2     2.835997217441   111.10877629   200.25276988
 C      5   4   3     2.865505727420   113.13149726   251.18309461
 C      6   5   4     2.838996178841   106.76071069   138.41037294
 C      7   6   5     2.829245975502   114.23373685   173.71306585
 C      8   7   6     2.882463539705   111.99952604   266.69396740
 C      9   8   7     2.877755326568   106.93281234   194.15836474
 H      1   2   3     2.084141982713   111.23090666   297.82134987
 H      1   2   3     2.110864896622   108.34662635    62.32902263
 H      1   2   3     2.112170039332   108.28844026   175.71813214
 H      2   1   3     2.115549161230   104.92480108   245.68734707
 H      2   1   3     2.095757861995   110.21629881   124.95454224
 H      3   2   1     2.114836970203   110.94983504   351.69289809
 H      3   2   1     2.114718654628   112.23884693   234.78055304
 H      4   3   2     2.115686395305   105.74817856   315.49980998
 H      4   3   2     2.115392117881   110.84045678    74.05157530
 H      5   4   3     2.115743038609   106.86808524    14.45839750
 H      5   4   3     2.113660538087   112.66112534   130.93777965
 H      6   5   4     2.108058800093   111.89206674    21.33407500
 H      6   5   4     2.114234394577   112.03409454   259.48028466
 H      7   6   5     2.111875348189   106.61859608   293.57514067
 H      7   6   5     2.102824273282   106.59563871    53.40657063
 H      8   7   6     2.116621380088   106.70316166   152.76635452
 H      8   7   6     2.080786050630   114.64098202    34.74289211
 H      9   8   7     2.078760343009   106.64803324   307.72480553
 H      9   8   7     2.092923189175   110.96000405    72.49493057
 H     10   9   8     2.083461275603   111.53621979   268.78045178
 H     10   9   8     2.111229365607   110.98797724   145.31254633
 H     10   9   8     2.115329220202   108.74623293    30.60405246

---------------------
BASIS SET INFORMATION
---------------------
There are 2 groups of distinct atoms

 Group   1 Type C   : 7s4p1d contracted to 3s2p1d pattern {511/31/1}
 Group   2 Type H   : 4s contracted to 2s pattern {31}

Atom   0C    basis set group =>   1
Atom   1C    basis set group =>   1
Atom   2C    basis set group =>   1
Atom   3C    basis set group =>   1
Atom   4C    basis set group =>   1
Atom   5C    basis set group =>   1
Atom   6C    basis set group =>   1
Atom   7C    basis set group =>   1
Atom   8C    basis set group =>   1
Atom   9C    basis set group =>   1
Atom  10H    basis set group =>   2
Atom  11H    basis set group =>   2
Atom  12H    basis set group =>   2
Atom  13H    basis set group =>   2
Atom  14H    basis set group =>   2
Atom  15H    basis set group =>   2
Atom  16H    basis set group =>   2
Atom  17H    basis set group =>   2
Atom  18H    basis set group =>   2
Atom  19H    basis set group =>   2
Atom  20H    basis set group =>   2
Atom  21H    basis set group =>   2
Atom  22H    basis set group =>   2
Atom  23H    basis set group =>   2
Atom  24H    basis set group =>   2
Atom  25H    basis set group =>   2
Atom  26H    basis set group =>   2
Atom  27H    basis set group =>   2
Atom  28H    basis set group =>   2
Atom  29H    basis set group =>   2
Atom  30H    basis set group =>   2
Atom  31H    basis set group =>   2
---------------------------------
AUXILIARY/J BASIS SET INFORMATION
---------------------------------
There are 2 groups of distinct atoms

 Group   1 Type C   : 12s5p4d2f1g contracted to 6s4p3d1f1g pattern {711111/2111/211/2/1}
 Group   2 Type H   : 5s2p1d contracted to 3s1p1d pattern {311/2/1}

Atom   0C    basis set group =>   1
Atom   1C    basis set group =>   1
Atom   2C    basis set group =>   1
Atom   3C    basis set group =>   1
Atom   4C    basis set group =>   1
Atom   5C    basis set group =>   1
Atom   6C    basis set group =>   1
Atom   7C    basis set group =>   1
Atom   8C    basis set group =>   1
Atom   9C    basis set group =>   1
Atom  10H    basis set group =>   2
Atom  11H    basis set group =>   2
Atom  12H    basis set group =>   2
Atom  13H    basis set group =>   2
Atom  14H    basis set group =>   2
Atom  15H    basis set group =>   2
Atom  16H    basis set group =>   2
Atom  17H    basis set group =>   2
Atom  18H    basis set group =>   2
Atom  19H    basis set group =>   2
Atom  20H    basis set group =>   2
Atom  21H    basis set group =>   2
Atom  22H    basis set group =>   2
Atom  23H    basis set group =>   2
Atom  24H    basis set group =>   2
Atom  25H    basis set group =>   2
Atom  26H    basis set group =>   2
Atom  27H    basis set group =>   2
Atom  28H    basis set group =>   2
Atom  29H    basis set group =>   2
Atom  30H    basis set group =>   2
Atom  31H    basis set group =>   2
------------------------------------------------------------------------------
                           ORCA GTO INTEGRAL CALCULATION
------------------------------------------------------------------------------

                         BASIS SET STATISTICS AND STARTUP INFO

 # of primitive gaussian shells          ...  208
 # of primitive gaussian functions       ...  328
 # of contracted shells                  ...  104
 # of contracted basis functions         ...  184
 Highest angular momentum                ...    2
 Maximum contraction depth               ...    5
 Integral package used                   ... LIBINT
 Integral threshhold            Thresh   ...  1.000e-12
 Primitive cut-off              TCut     ...  1.000e-14


------------------------------ INTEGRAL EVALUATION ----------------------------


 * One electron integrals 
 Pre-screening matrix                    ... done
 Shell pair data                         ... done (   0.001 sec)

-------------------------------------------------------------------------------
                                 ORCA SCF
-------------------------------------------------------------------------------

------------
SCF SETTINGS
------------
Hamiltonian:
 Density Functional     Method          .... DFT(GTOs)
 Exchange Functional    Exchange        .... B88
   X-Alpha parameter    XAlpha          ....  0.666667
   Becke's b parameter  XBeta           ....  0.004200
 Correlation Functional Correlation     .... LYP
 LDA part of GGA corr.  LDAOpt          .... VWN-5
 Gradients option       PostSCFGGA      .... off
 Hybrid DFT is turned on
   Fraction HF Exchange ScalHFX         ....  0.200000
   Scaling of DF-GGA-X  ScalDFX         ....  0.720000
   Scaling of DF-GGA-C  ScalDFC         ....  0.810000
   Scaling of DF-LDA-C  ScalLDAC        ....  1.000000
   Perturbative correction              ....  0.000000
   Density functional embedding theory  .... OFF
   NL short-range parameter             ....  4.800000


General Settings:
 Integral files         IntName         .... orca2
 Hartree-Fock type      HFTyp           .... UHF
 Total Charge           Charge          ....    0
 Multiplicity           Mult            ....    1
 Number of Electrons    NEL             ....   82
 Basis Dimension        Dim             ....  184
 Nuclear Repulsion      ENuc            ....    537.1363269263 Eh

Convergence Acceleration:
 DIIS                   CNVDIIS         .... on
   Start iteration      DIISMaxIt       ....    12
   Startup error        DIISStart       ....  0.200000
   # of expansion vecs  DIISMaxEq       ....     5
   Bias factor          DIISBfac        ....   1.050
   Max. coefficient     DIISMaxC        ....  10.000
 Newton-Raphson         CNVNR           .... off
 SOSCF                  CNVSOSCF        .... off
 Level Shifting         CNVShift        .... on
   Level shift para.    LevelShift      ....    0.2500
   Turn off err/grad.   ShiftErr        ....    0.0010
 Zerner damping         CNVZerner       .... off
 Static damping         CNVDamp         .... on
   Fraction old density DampFac         ....    0.7000
   Max. Damping (<1)    DampMax         ....    0.9800
   Min. Damping (>=0)   DampMin         ....    0.0000
   Turn off err/grad.   DampErr         ....    0.1000
 Fernandez-Rico         CNVRico         .... off

SCF Procedure:
 Maximum # iterations   MaxIter         ....   500
 SCF integral mode      SCFMode         .... Direct
   Integral package                     .... LIBINT
 Reset frequency        DirectResetFreq ....    20
 Integral Threshold     Thresh          ....  1.000e-12 Eh
 Primitive CutOff       TCut            ....  1.000e-14 Eh

Convergence Tolerance:
 Convergence Check Mode ConvCheckMode   .... Total+1el-Energy
 Convergence forced     ConvForced      .... 0
 Energy Change          TolE            ....  1.000e-09 Eh
 1-El. energy change                    ....  1.000e-06 Eh
 DIIS Error             TolErr          ....  1.000e-08


Diagonalization of the overlap matrix:
Smallest eigenvalue                        ... 1.140e-03
Time for diagonalization                   ...    0.003 sec
Threshold for overlap eigenvalues          ... 1.000e-08
Number of eigenvalues below threshold      ... 0
Time for construction of square roots      ...    8.412 sec
Total time needed                          ...    8.416 sec

-------------------
DFT GRID GENERATION
-------------------

General Integration Accuracy     IntAcc      ...  4.340
Radial Grid Type                 RadialGrid  ... Gauss-Chebyshev
Angular Grid (max. acc.)         AngularGrid ... Lebedev-110
Angular grid pruning method      GridPruning ... 3 (G Style)
Weight generation scheme         WeightScheme... Becke
Basis function cutoff            BFCut       ...    1.0000e-12
Integration weight cutoff        WCut        ...    1.0000e-14
Grids for H and He will be reduced by one unit

# of grid points (after initial pruning)     ...  34028 (   0.0 sec)
# of grid points (after weights+screening)   ...  30727 (   0.2 sec)
nearest neighbour list constructed           ...    0.0 sec
Grid point re-assignment to atoms done       ...    0.0 sec
Grid point division into batches done        ...    0.0 sec
Reduced shell lists constructed in    0.2 sec

Total number of grid points                  ...    30727
Total number of batches                      ...      496
Average number of points per batch           ...       61
Average number of grid points per atom       ...      960
Average number of shells per batch           ...    65.73 (63.20%)
Average number of basis functions per batch  ...   112.51 (61.15%)
Average number of large shells per batch     ...    49.17 (74.80%)
Average number of large basis fcns per batch ...    84.79 (75.37%)
Maximum spatial batch extension              ...  20.06, 20.50, 22.69 au
Average spatial batch extension              ...   3.05,  3.63,  3.52 au

Time for grid setup =    3.755 sec

------------------------------
INITIAL GUESS: MODEL POTENTIAL
------------------------------
Loading Hartree-Fock densities                     ... done
Calculating cut-offs                               ... done
Setting up the integral package                    ... done
Initializing the effective Hamiltonian             ... done
Starting the Coulomb interaction                   ... done (   0.2 sec)
Reading the grid                                   ... done
Mapping shells                                     ... done
Starting the XC term evaluation                    ... done (   0.3 sec)
  promolecular density results
     # of electrons  =     81.997286626
     EX              =    -57.966018406
     EC              =     -2.607235465
     EX+EC           =    -60.573253870
Transforming the Hamiltonian                       ... done (   0.0 sec)
Diagonalizing the Hamiltonian                      ... done (   0.0 sec)
Back transforming the eigenvectors                 ... done (   0.0 sec)
Now organizing SCF variables                       ... done
                      ------------------
                      INITIAL GUESS DONE (   4.4 sec)
                      ------------------
--------------
SCF ITERATIONS
--------------
ITER       Energy         Delta-E        Max-DP      RMS-DP      [F,P]     Damp
               ***  Starting incremental Fock matrix formation  ***
  0   -393.2719943098   0.000000000000 0.04190078  0.00142198  0.1676145 0.7000
  1   -393.4539232987  -0.181928988955 0.02573316  0.00101330  0.0868020 0.7000
                               ***Turning on DIIS***
  2   -393.5264643647  -0.072541065977 0.03528159  0.00166928  0.0320261 0.0000
  3   -393.6237657571  -0.097301392443 0.01738110  0.00068439  0.0484709 0.0000
  4   -393.6564593697  -0.032693612619 0.00373626  0.00020945  0.0109169 0.0000
  5   -393.6581616775  -0.001702307745 0.00121724  0.00007314  0.0022043 0.0000
  6   -393.6582622243  -0.000100546783 0.00063330  0.00003846  0.0007123 0.0000
  7   -393.6582705109  -0.000008286610 0.00021036  0.00000440  0.0003690 0.0000
  8   -393.6582712444  -0.000000733516 0.00005468  0.00000119  0.0000981 0.0000
  9   -393.6582712819  -0.000000037517 0.00001626  0.00000042  0.0000219 0.0000
 10   -393.6582712853  -0.000000003386 0.00000551  0.00000015  0.0000098 0.0000
 11   -393.6582712860  -0.000000000734 0.00000097  0.00000004  0.0000019 0.0000
 12   -393.6582712860  -0.000000000006 0.00000046  0.00000001  0.0000006 0.0000
 13   -393.6582712860   0.000000000029 0.00000021  0.00000000  0.0000004 0.0000
                 **** Energy Check signals convergence ****

 Fermi smearing  (ALPHA): E(HOMO(Eh)) = -0.281485 MUE = -0.114188 gap=   9.105 eV
 Fermi smearing   (BETA): E(HOMO(Eh)) = -0.281485 MUE = -0.114188 gap=   9.105 eV

N_FOD(alpha) =  0.000000
 N_FOD(beta) =  0.000000
       N_FOD =  0.000000

               *****************************************************
               *                     SUCCESS                       *
               *           SCF CONVERGED AFTER  14 CYCLES          *
               *****************************************************

Setting up the final grid:

General Integration Accuracy     IntAcc      ...  4.670
Radial Grid Type                 RadialGrid  ... Gauss-Chebyshev
Angular Grid (max. acc.)         AngularGrid ... Lebedev-302
Angular grid pruning method      GridPruning ... 3 (G Style)
Weight generation scheme         WeightScheme... Becke
Basis function cutoff            BFCut       ...    1.0000e-12
Integration weight cutoff        WCut        ...    1.0000e-14
Grids for H and He will be reduced by one unit

# of grid points (after initial pruning)     ... 136788 (   0.1 sec)
# of grid points (after weights+screening)   ... 121018 (   0.7 sec)
nearest neighbour list constructed           ...    0.0 sec
Grid point re-assignment to atoms done       ...    0.0 sec
Grid point division into batches done        ...    0.3 sec
Reduced shell lists constructed in    1.0 sec

Total number of grid points                  ...   121018
Total number of batches                      ...     1907
Average number of points per batch           ...       63
Average number of grid points per atom       ...     3782
Average number of shells per batch           ...    60.71 (58.38%)
Average number of basis functions per batch  ...   103.42 (56.21%)
Average number of large shells per batch     ...    44.84 (73.86%)
Average number of large basis fcns per batch ...    77.03 (74.48%)
Maximum spatial batch extension              ...  17.31, 21.06, 19.97 au
Average spatial batch extension              ...   2.10,  2.29,  2.30 au

Final grid set up in    4.1 sec
Final integration                            ... done (  16.7 sec)
Change in XC energy                          ...    -0.000116870
Integrated number of electrons               ...    82.000094239
Previous integrated no of electrons          ...    82.003481139

----------------
TOTAL SCF ENERGY
----------------

Total Energy       :         -393.65838816 Eh          -10711.98933 eV

Components:
Nuclear Repulsion  :          537.13632693 Eh           14616.22253 eV
Electronic Energy  :         -930.79471508 Eh          -25328.21186 eV
One Electron Energy:        -1593.24394447 Eh          -43354.37182 eV
Two Electron Energy:          662.44922938 Eh           18026.15996 eV

Virial components:
Potential Energy   :         -783.26765789 Eh          -21313.79654 eV
Kinetic Energy     :          389.60926973 Eh           10601.80721 eV
Virial Ratio       :            2.01039277


DFT components:
N(Alpha)           :       41.000047119310 electrons
N(Beta)            :       41.000047119310 electrons
N(Total)           :       82.000094238621 electrons
E(X)               :      -47.164922170053 Eh       
E(C)               :       -3.087464550775 Eh       
E(XC)              :      -50.252386720828 Eh       
DFET-embed. en.    :        0.000000000000 Eh       

---------------
SCF CONVERGENCE
---------------

  Last Energy change         ...   -7.6170e-12  Tolerance :   1.0000e-09
  Last MAX-Density change    ...    3.9465e-08  Tolerance :   1.0000e-08
  Last RMS-Density change    ...    8.1702e-10  Tolerance :   1.0000e-09
  Last DIIS Error            ...    6.9008e-08  Tolerance :   1.0000e-08

             **** THE GBW FILE WAS UPDATED (orca2.gbw) ****
             **** DENSITY FILE WAS UPDATED (orca2.scfp) ****
             **** ENERGY FILE WAS UPDATED (orca2.en.tmp) ****
             **** THE GBW FILE WAS UPDATED (orca2.gbw) ****
             **** DENSITY FILE WAS UPDATED (orca2.scfp) ****
----------------
ORBITAL ENERGIES
----------------
                 SPIN UP ORBITALS
  NO   OCC          E(Eh)            E(eV) 
   0   1.0000     -10.168732      -276.7053 
   1   1.0000     -10.168482      -276.6985 
   2   1.0000     -10.167173      -276.6628 
   3   1.0000     -10.166555      -276.6460 
   4   1.0000     -10.165805      -276.6256 
   5   1.0000     -10.164820      -276.5988 
   6   1.0000     -10.163496      -276.5628 
   7   1.0000     -10.163038      -276.5503 
   8   1.0000     -10.162693      -276.5409 
   9   1.0000     -10.162418      -276.5335 
  10   1.0000      -0.812077       -22.0977 
  11   1.0000      -0.793437       -21.5905 
  12   1.0000      -0.764292       -20.7975 
  13   1.0000      -0.724902       -19.7256 
  14   1.0000      -0.677328       -18.4310 
  15   1.0000      -0.631691       -17.1892 
  16   1.0000      -0.588878       -16.0242 
  17   1.0000      -0.565613       -15.3911 
  18   1.0000      -0.562314       -15.3013 
  19   1.0000      -0.553559       -15.0631 
  20   1.0000      -0.476338       -12.9618 
  21   1.0000      -0.468741       -12.7551 
  22   1.0000      -0.457839       -12.4584 
  23   1.0000      -0.442373       -12.0376 
  24   1.0000      -0.428863       -11.6699 
  25   1.0000      -0.419098       -11.4042 
  26   1.0000      -0.408722       -11.1219 
  27   1.0000      -0.395769       -10.7694 
  28   1.0000      -0.378560       -10.3011 
  29   1.0000      -0.374808       -10.1990 
  30   1.0000      -0.355477        -9.6730 
  31   1.0000      -0.350302        -9.5322 
  32   1.0000      -0.345133        -9.3915 
  33   1.0000      -0.339551        -9.2396 
  34   1.0000      -0.332915        -9.0591 
  35   1.0000      -0.329716        -8.9720 
  36   1.0000      -0.323720        -8.8089 
  37   1.0000      -0.311431        -8.4745 
  38   1.0000      -0.306372        -8.3368 
  39   1.0000      -0.295884        -8.0514 
  40   1.0000      -0.281485        -7.6596 
  41   0.0000       0.053110         1.4452 
  42   0.0000       0.063391         1.7249 
  43   0.0000       0.070862         1.9282 
  44   0.0000       0.072085         1.9615 
  45   0.0000       0.075796         2.0625 
  46   0.0000       0.091210         2.4819 
  47   0.0000       0.093411         2.5418 
  48   0.0000       0.097972         2.6660 
  49   0.0000       0.112807         3.0696 
  50   0.0000       0.122190         3.3249 
  51   0.0000       0.128741         3.5032 
  52   0.0000       0.134447         3.6585 
  53   0.0000       0.138568         3.7706 
  54   0.0000       0.144170         3.9231 
  55   0.0000       0.147248         4.0068 
  56   0.0000       0.157729         4.2920 
  57   0.0000       0.159521         4.3408 
  58   0.0000       0.173209         4.7133 
  59   0.0000       0.178843         4.8666 
  60   0.0000       0.191355         5.2070 
  61   0.0000       0.200738         5.4624 
  62   0.0000       0.208263         5.6671 
  63   0.0000       0.219049         5.9606 
  64   0.0000       0.239250         6.5103 
  65   0.0000       0.245243         6.6734 
  66   0.0000       0.250108         6.8058 
  67   0.0000       0.271477         7.3873 
  68   0.0000       0.281693         7.6652 
  69   0.0000       0.283464         7.7135 
  70   0.0000       0.304232         8.2786 
  71   0.0000       0.311877         8.4866 
  72   0.0000       0.427382        11.6296 
  73   0.0000       0.430282        11.7086 
  74   0.0000       0.439489        11.9591 
  75   0.0000       0.444883        12.1059 
  76   0.0000       0.449323        12.2267 
  77   0.0000       0.453823        12.3491 
  78   0.0000       0.462878        12.5956 
  79   0.0000       0.476684        12.9712 
  80   0.0000       0.485848        13.2206 
  81   0.0000       0.498642        13.5687 
  82   0.0000       0.514659        14.0046 
  83   0.0000       0.540588        14.7102 
  84   0.0000       0.563575        15.3357 
  85   0.0000       0.596606        16.2345 
  86   0.0000       0.604365        16.4456 
  87   0.0000       0.609869        16.5954 
  88   0.0000       0.634555        17.2671 
  89   0.0000       0.644939        17.5497 
  90   0.0000       0.646464        17.5912 
  91   0.0000       0.653074        17.7710 
  92   0.0000       0.654699        17.8153 
  93   0.0000       0.662248        18.0207 
  94   0.0000       0.669354        18.2140 
  95   0.0000       0.670229        18.2379 
  96   0.0000       0.679109        18.4795 
  97   0.0000       0.681957        18.5570 
  98   0.0000       0.690209        18.7815 
  99   0.0000       0.692687        18.8490 
 100   0.0000       0.698143        18.9974 
 101   0.0000       0.699866        19.0443 
 102   0.0000       0.705222        19.1901 
 103   0.0000       0.710002        19.3201 
 104   0.0000       0.712244        19.3811 
 105   0.0000       0.714596        19.4452 
 106   0.0000       0.717107        19.5135 
 107   0.0000       0.721160        19.6238 
 108   0.0000       0.724047        19.7023 
 109   0.0000       0.726788        19.7769 
 110   0.0000       0.733766        19.9668 
 111   0.0000       0.736252        20.0344 
 112   0.0000       0.739802        20.1310 
 113   0.0000       0.750256        20.4155 
 114   0.0000       0.753115        20.4933 
 115   0.0000       0.764681        20.8080 
 116   0.0000       0.770448        20.9650 
 117   0.0000       0.770912        20.9776 
 118   0.0000       0.780962        21.2511 
 119   0.0000       0.798364        21.7246 
 120   0.0000       0.800972        21.7955 
 121   0.0000       0.820986        22.3402 
 122   0.0000       0.844496        22.9799 
 123   0.0000       0.899048        24.4643 
 124   0.0000       0.922153        25.0931 
 125   0.0000       0.973671        26.4949 
 126   0.0000       1.005937        27.3729 
 127   0.0000       1.031025        28.0556 
 128   0.0000       1.095010        29.7967 
 129   0.0000       1.119952        30.4754 
 130   0.0000       1.157872        31.5073 
 131   0.0000       1.192612        32.4526 
 132   0.0000       1.214371        33.0447 
 133   0.0000       1.253588        34.1119 
 134   0.0000       1.383240        37.6399 
 135   0.0000       1.429582        38.9009 
 136   0.0000       1.497381        40.7458 
 137   0.0000       1.528705        41.5982 
 138   0.0000       1.615220        43.9524 
 139   0.0000       1.648759        44.8650 
 140   0.0000       1.717807        46.7439 
 141   0.0000       1.735951        47.2376 
 142   0.0000       1.799902        48.9778 
 143   0.0000       1.823180        49.6113 
 144   0.0000       1.833683        49.8971 
 145   0.0000       1.846279        50.2398 
 146   0.0000       1.872567        50.9551 
 147   0.0000       1.880014        51.1578 
 148   0.0000       1.889820        51.4246 
 149   0.0000       1.894700        51.5574 
 150   0.0000       1.940210        52.7958 
 151   0.0000       1.946217        52.9593 
 152   0.0000       1.966847        53.5206 
 153   0.0000       1.977809        53.8189 
 154   0.0000       1.980003        53.8786 
 155   0.0000       2.009902        54.6922 
 156   0.0000       2.036363        55.4123 
 157   0.0000       2.049293        55.7641 
 158   0.0000       2.078610        56.5619 
 159   0.0000       2.092929        56.9515 
 160   0.0000       2.104317        57.2614 
 161   0.0000       2.151764        58.5525 
 162   0.0000       2.173685        59.1490 
 163   0.0000       2.182918        59.4002 
 164   0.0000       2.203186        59.9517 
 165   0.0000       2.235177        60.8223 
 166   0.0000       2.248458        61.1837 
 167   0.0000       2.277985        61.9871 
 168   0.0000       2.308764        62.8247 
 169   0.0000       2.329392        63.3860 
 170   0.0000       2.354733        64.0755 
 171   0.0000       2.366316        64.3907 
 172   0.0000       2.384214        64.8777 
 173   0.0000       2.469695        67.2038 
 174   0.0000       2.479772        67.4780 
 175   0.0000       2.503921        68.1352 
 176   0.0000       2.521439        68.6118 
 177   0.0000       2.570392        69.9439 
 178   0.0000       2.603061        70.8329 
 179   0.0000       2.667633        72.5900 
 180   0.0000       2.712757        73.8179 
 181   0.0000       2.754848        74.9632 
 182   0.0000       2.793181        76.0063 
 183   0.0000       2.833204        77.0954 

                 SPIN DOWN ORBITALS
  NO   OCC          E(Eh)            E(eV) 
   0   1.0000     -10.168732      -276.7053 
   1   1.0000     -10.168482      -276.6985 
   2   1.0000     -10.167173      -276.6628 
   3   1.0000     -10.166555      -276.6460 
   4   1.0000     -10.165805      -276.6256 
   5   1.0000     -10.164820      -276.5988 
   6   1.0000     -10.163496      -276.5628 
   7   1.0000     -10.163038      -276.5503 
   8   1.0000     -10.162693      -276.5409 
   9   1.0000     -10.162418      -276.5335 
  10   1.0000      -0.812077       -22.0977 
  11   1.0000      -0.793437       -21.5905 
  12   1.0000      -0.764292       -20.7975 
  13   1.0000      -0.724902       -19.7256 
  14   1.0000      -0.677328       -18.4310 
  15   1.0000      -0.631691       -17.1892 
  16   1.0000      -0.588878       -16.0242 
  17   1.0000      -0.565613       -15.3911 
  18   1.0000      -0.562314       -15.3013 
  19   1.0000      -0.553559       -15.0631 
  20   1.0000      -0.476338       -12.9618 
  21   1.0000      -0.468741       -12.7551 
  22   1.0000      -0.457839       -12.4584 
  23   1.0000      -0.442373       -12.0376 
  24   1.0000      -0.428863       -11.6699 
  25   1.0000      -0.419098       -11.4042 
  26   1.0000      -0.408722       -11.1219 
  27   1.0000      -0.395769       -10.7694 
  28   1.0000      -0.378560       -10.3011 
  29   1.0000      -0.374808       -10.1990 
  30   1.0000      -0.355477        -9.6730 
  31   1.0000      -0.350302        -9.5322 
  32   1.0000      -0.345133        -9.3915 
  33   1.0000      -0.339551        -9.2396 
  34   1.0000      -0.332915        -9.0591 
  35   1.0000      -0.329716        -8.9720 
  36   1.0000      -0.323720        -8.8089 
  37   1.0000      -0.311431        -8.4745 
  38   1.0000      -0.306372        -8.3368 
  39   1.0000      -0.295884        -8.0514 
  40   1.0000      -0.281485        -7.6596 
  41   0.0000       0.053110         1.4452 
  42   0.0000       0.063391         1.7249 
  43   0.0000       0.070862         1.9282 
  44   0.0000       0.072085         1.9615 
  45   0.0000       0.075796         2.0625 
  46   0.0000       0.091210         2.4819 
  47   0.0000       0.093411         2.5418 
  48   0.0000       0.097972         2.6660 
  49   0.0000       0.112807         3.0696 
  50   0.0000       0.122190         3.3249 
  51   0.0000       0.128741         3.5032 
  52   0.0000       0.134447         3.6585 
  53   0.0000       0.138568         3.7706 
  54   0.0000       0.144170         3.9231 
  55   0.0000       0.147248         4.0068 
  56   0.0000       0.157729         4.2920 
  57   0.0000       0.159521         4.3408 
  58   0.0000       0.173209         4.7133 
  59   0.0000       0.178843         4.8666 
  60   0.0000       0.191355         5.2070 
  61   0.0000       0.200738         5.4624 
  62   0.0000       0.208263         5.6671 
  63   0.0000       0.219049         5.9606 
  64   0.0000       0.239250         6.5103 
  65   0.0000       0.245243         6.6734 
  66   0.0000       0.250108         6.8058 
  67   0.0000       0.271477         7.3873 
  68   0.0000       0.281693         7.6652 
  69   0.0000       0.283464         7.7135 
  70   0.0000       0.304232         8.2786 
  71   0.0000       0.311877         8.4866 
  72   0.0000       0.427382        11.6296 
  73   0.0000       0.430282        11.7086 
  74   0.0000       0.439489        11.9591 
  75   0.0000       0.444883        12.1059 
  76   0.0000       0.449323        12.2267 
  77   0.0000       0.453823        12.3491 
  78   0.0000       0.462878        12.5956 
  79   0.0000       0.476684        12.9712 
  80   0.0000       0.485848        13.2206 
  81   0.0000       0.498642        13.5687 
  82   0.0000       0.514659        14.0046 
  83   0.0000       0.540588        14.7102 
  84   0.0000       0.563575        15.3357 
  85   0.0000       0.596606        16.2345 
  86   0.0000       0.604365        16.4456 
  87   0.0000       0.609869        16.5954 
  88   0.0000       0.634555        17.2671 
  89   0.0000       0.644939        17.5497 
  90   0.0000       0.646464        17.5912 
  91   0.0000       0.653074        17.7710 
  92   0.0000       0.654699        17.8153 
  93   0.0000       0.662248        18.0207 
  94   0.0000       0.669354        18.2140 
  95   0.0000       0.670229        18.2379 
  96   0.0000       0.679109        18.4795 
  97   0.0000       0.681957        18.5570 
  98   0.0000       0.690209        18.7815 
  99   0.0000       0.692687        18.8490 
 100   0.0000       0.698143        18.9974 
 101   0.0000       0.699866        19.0443 
 102   0.0000       0.705222        19.1901 
 103   0.0000       0.710002        19.3201 
 104   0.0000       0.712244        19.3811 
 105   0.0000       0.714596        19.4452 
 106   0.0000       0.717107        19.5135 
 107   0.0000       0.721160        19.6238 
 108   0.0000       0.724047        19.7023 
 109   0.0000       0.726788        19.7769 
 110   0.0000       0.733766        19.9668 
 111   0.0000       0.736252        20.0344 
 112   0.0000       0.739802        20.1310 
 113   0.0000       0.750256        20.4155 
 114   0.0000       0.753115        20.4933 
 115   0.0000       0.764681        20.8080 
 116   0.0000       0.770448        20.9650 
 117   0.0000       0.770912        20.9776 
 118   0.0000       0.780962        21.2511 
 119   0.0000       0.798364        21.7246 
 120   0.0000       0.800972        21.7955 
 121   0.0000       0.820986        22.3402 
 122   0.0000       0.844496        22.9799 
 123   0.0000       0.899048        24.4643 
 124   0.0000       0.922153        25.0931 
 125   0.0000       0.973671        26.4949 
 126   0.0000       1.005937        27.3729 
 127   0.0000       1.031025        28.0556 
 128   0.0000       1.095010        29.7967 
 129   0.0000       1.119952        30.4754 
 130   0.0000       1.157872        31.5073 
 131   0.0000       1.192612        32.4526 
 132   0.0000       1.214371        33.0447 
 133   0.0000       1.253588        34.1119 
 134   0.0000       1.383240        37.6399 
 135   0.0000       1.429582        38.9009 
 136   0.0000       1.497381        40.7458 
 137   0.0000       1.528705        41.5982 
 138   0.0000       1.615220        43.9524 
 139   0.0000       1.648759        44.8650 
 140   0.0000       1.717807        46.7439 
 141   0.0000       1.735951        47.2376 
 142   0.0000       1.799902        48.9778 
 143   0.0000       1.823180        49.6113 
 144   0.0000       1.833683        49.8971 
 145   0.0000       1.846279        50.2398 
 146   0.0000       1.872567        50.9551 
 147   0.0000       1.880014        51.1578 
 148   0.0000       1.889820        51.4246 
 149   0.0000       1.894700        51.5574 
 150   0.0000       1.940210        52.7958 
 151   0.0000       1.946217        52.9593 
 152   0.0000       1.966847        53.5206 
 153   0.0000       1.977809        53.8189 
 154   0.0000       1.980003        53.8786 
 155   0.0000       2.009902        54.6922 
 156   0.0000       2.036363        55.4123 
 157   0.0000       2.049293        55.7641 
 158   0.0000       2.078610        56.5619 
 159   0.0000       2.092929        56.9515 
 160   0.0000       2.104317        57.2614 
 161   0.0000       2.151764        58.5525 
 162   0.0000       2.173685        59.1490 
 163   0.0000       2.182918        59.4002 
 164   0.0000       2.203186        59.9517 
 165   0.0000       2.235177        60.8223 
 166   0.0000       2.248458        61.1837 
 167   0.0000       2.277985        61.9871 
 168   0.0000       2.308764        62.8247 
 169   0.0000       2.329392        63.3860 
 170   0.0000       2.354733        64.0755 
 171   0.0000       2.366316        64.3907 
 172   0.0000       2.384214        64.8777 
 173   0.0000       2.469695        67.2038 
 174   0.0000       2.479772        67.4780 
 175   0.0000       2.503921        68.1352 
 176   0.0000       2.521439        68.6118 
 177   0.0000       2.570392        69.9439 
 178   0.0000       2.603061        70.8329 
 179   0.0000       2.667633        72.5900 
 180   0.0000       2.712757        73.8179 
 181   0.0000       2.754848        74.9632 
 182   0.0000       2.793181        76.0063 
 183   0.0000       2.833204        77.0954 

                    ********************************
                    * MULLIKEN POPULATION ANALYSIS *
                    ********************************

------------------------------------------
FOD BASED MULLIKEN REDUCED ORBITAL CHARGES
------------------------------------------
  0 C s       :    -0.000000  s :    -0.000000
      pz      :     0.000000  p :     0.000000
      px      :     0.000000
      py      :     0.000000
      dz2     :     0.000000  d :     0.000000
      dxz     :     0.000000
      dyz     :     0.000000
      dx2y2   :     0.000000
      dxy     :     0.000000
  1 C s       :    -0.000000  s :    -0.000000
      pz      :     0.000000  p :     0.000000
      px      :     0.000000
      py      :     0.000000
      dz2     :     0.000000  d :     0.000000
      dxz     :     0.000000
      dyz     :     0.000000
      dx2y2   :     0.000000
      dxy     :     0.000000
  2 C s       :    -0.000000  s :    -0.000000
      pz      :     0.000000  p :     0.000000
      px      :     0.000000
      py      :     0.000000
      dz2     :     0.000000  d :     0.000000
      dxz     :     0.000000
      dyz     :     0.000000
      dx2y2   :     0.000000
      dxy     :     0.000000
  3 C s       :    -0.000000  s :    -0.000000
      pz      :     0.000000  p :     0.000000
      px      :     0.000000
      py      :     0.000000
      dz2     :     0.000000  d :     0.000000
      dxz     :     0.000000
      dyz     :     0.000000
      dx2y2   :     0.000000
      dxy     :     0.000000
  4 C s       :    -0.000000  s :    -0.000000
      pz      :     0.000000  p :     0.000000
      px      :     0.000000
      py      :     0.000000
      dz2     :     0.000000  d :     0.000000
      dxz     :     0.000000
      dyz     :     0.000000
      dx2y2   :     0.000000
      dxy     :     0.000000
  5 C s       :    -0.000000  s :    -0.000000
      pz      :     0.000000  p :     0.000000
      px      :     0.000000
      py      :     0.000000
      dz2     :     0.000000  d :     0.000000
      dxz     :     0.000000
      dyz     :     0.000000
      dx2y2   :     0.000000
      dxy     :     0.000000
  6 C s       :    -0.000000  s :    -0.000000
      pz      :     0.000000  p :     0.000000
      px      :     0.000000
      py      :     0.000000
      dz2     :     0.000000  d :     0.000000
      dxz     :     0.000000
      dyz     :     0.000000
      dx2y2   :     0.000000
      dxy     :     0.000000
  7 C s       :    -0.000000  s :    -0.000000
      pz      :     0.000000  p :     0.000000
      px      :     0.000000
      py      :     0.000000
      dz2     :     0.000000  d :     0.000000
      dxz     :     0.000000
      dyz     :     0.000000
      dx2y2   :     0.000000
      dxy     :     0.000000
  8 C s       :    -0.000000  s :    -0.000000
      pz      :     0.000000  p :     0.000000
      px      :     0.000000
      py      :     0.000000
      dz2     :     0.000000  d :     0.000000
      dxz     :     0.000000
      dyz     :     0.000000
      dx2y2   :     0.000000
      dxy     :     0.000000
  9 C s       :    -0.000000  s :    -0.000000
      pz      :     0.000000  p :     0.000000
      px      :     0.000000
      py      :     0.000000
      dz2     :     0.000000  d :     0.000000
      dxz     :     0.000000
      dyz     :     0.000000
      dx2y2   :     0.000000
      dxy     :     0.000000
 10 H s       :     0.000000  s :     0.000000
 11 H s       :     0.000000  s :     0.000000
 12 H s       :     0.000000  s :     0.000000
 13 H s       :     0.000000  s :     0.000000
 14 H s       :     0.000000  s :     0.000000
 15 H s       :     0.000000  s :     0.000000
 16 H s       :     0.000000  s :     0.000000
 17 H s       :     0.000000  s :     0.000000
 18 H s       :     0.000000  s :     0.000000
 19 H s       :     0.000000  s :     0.000000
 20 H s       :     0.000000  s :     0.000000
 21 H s       :     0.000000  s :     0.000000
 22 H s       :     0.000000  s :     0.000000
 23 H s       :     0.000000  s :     0.000000
 24 H s       :     0.000000  s :     0.000000
 25 H s       :     0.000000  s :     0.000000
 26 H s       :     0.000000  s :     0.000000
 27 H s       :     0.000000  s :     0.000000
 28 H s       :     0.000000  s :     0.000000
 29 H s       :     0.000000  s :     0.000000
 30 H s       :     0.000000  s :     0.000000
 31 H s       :     0.000000  s :     0.000000


                     *******************************
                     * LOEWDIN POPULATION ANALYSIS *
                     *******************************

-------------------------------------------
LOEWDIN ATOMIC CHARGES AND SPIN POPULATIONS
-------------------------------------------
   0 C :   -0.314835    0.000000
   1 C :   -0.220307    0.000000
   2 C :   -0.212546    0.000000
   3 C :   -0.208613    0.000000
   4 C :   -0.209337    0.000000
   5 C :   -0.208938    0.000000
   6 C :   -0.212098    0.000000
   7 C :   -0.213864    0.000000
   8 C :   -0.220729    0.000000
   9 C :   -0.319552    0.000000
  10 H :    0.108545    0.000000
  11 H :    0.108844    0.000000
  12 H :    0.105713    0.000000
  13 H :    0.108194    0.000000
  14 H :    0.109339    0.000000
  15 H :    0.103665    0.000000
  16 H :    0.103149    0.000000
  17 H :    0.102885    0.000000
  18 H :    0.107117    0.000000
  19 H :    0.106055    0.000000
  20 H :    0.108177    0.000000
  21 H :    0.101115    0.000000
  22 H :    0.103330    0.000000
  23 H :    0.105365    0.000000
  24 H :    0.106862    0.000000
  25 H :    0.102563    0.000000
  26 H :    0.105950    0.000000
  27 H :    0.108363    0.000000
  28 H :    0.109570    0.000000
  29 H :    0.111086    0.000000
  30 H :    0.107482    0.000000
  31 H :    0.107451    0.000000

----------------------------------------------------
LOEWDIN REDUCED ORBITAL CHARGES AND SPIN POPULATIONS
----------------------------------------------------
CHARGE
  0 C s       :     2.959024  s :     2.959024
      pz      :     1.088529  p :     3.280889
      px      :     1.089633
      py      :     1.102728
      dz2     :     0.019958  d :     0.074922
      dxz     :     0.013324
      dyz     :     0.012636
      dx2y2   :     0.024434
      dxy     :     0.004570
  1 C s       :     2.908483  s :     2.908483
      pz      :     1.080356  p :     3.219557
      px      :     1.057207
      py      :     1.081995
      dz2     :     0.016925  d :     0.092266
      dxz     :     0.020506
      dyz     :     0.015542
      dx2y2   :     0.026189
      dxy     :     0.013105
  2 C s       :     2.913851  s :     2.913851
      pz      :     1.084513  p :     3.205513
      px      :     1.050411
      py      :     1.070589
      dz2     :     0.012913  d :     0.093182
      dxz     :     0.012908
      dyz     :     0.025966
      dx2y2   :     0.019259
      dxy     :     0.022137
  3 C s       :     2.910332  s :     2.910332
      pz      :     1.077713  p :     3.205105
      px      :     1.052222
      py      :     1.075171
      dz2     :     0.013681  d :     0.093176
      dxz     :     0.017952
      dyz     :     0.022990
      dx2y2   :     0.014500
      dxy     :     0.024054
  4 C s       :     2.907055  s :     2.907055
      pz      :     1.077320  p :     3.209266
      px      :     1.051074
      py      :     1.080871
      dz2     :     0.011357  d :     0.093016
      dxz     :     0.024321
      dyz     :     0.021305
      dx2y2   :     0.023584
      dxy     :     0.012448
  5 C s       :     2.907989  s :     2.907989
      pz      :     1.074008  p :     3.206742
      px      :     1.054380
      py      :     1.078354
      dz2     :     0.027791  d :     0.094207
      dxz     :     0.018618
      dyz     :     0.006758
      dx2y2   :     0.015312
      dxy     :     0.025728
  6 C s       :     2.903125  s :     2.903125
      pz      :     1.078541  p :     3.210624
      px      :     1.058847
      py      :     1.073236
      dz2     :     0.028134  d :     0.098348
      dxz     :     0.017144
      dyz     :     0.007102
      dx2y2   :     0.017746
      dxy     :     0.028223
  7 C s       :     2.908261  s :     2.908261
      pz      :     1.079902  p :     3.211153
      px      :     1.055483
      py      :     1.075768
      dz2     :     0.023155  d :     0.094450
      dxz     :     0.020695
      dyz     :     0.010984
      dx2y2   :     0.025295
      dxy     :     0.014321
  8 C s       :     2.910622  s :     2.910622
      pz      :     1.081780  p :     3.218576
      px      :     1.050788
      py      :     1.086008
      dz2     :     0.020430  d :     0.091531
      dxz     :     0.018897
      dyz     :     0.012978
      dx2y2   :     0.026749
      dxy     :     0.012478
  9 C s       :     2.957117  s :     2.957117
      pz      :     1.106289  p :     3.288788
      px      :     1.078057
      py      :     1.104443
      dz2     :     0.004893  d :     0.073646
      dxz     :     0.022043
      dyz     :     0.018790
      dx2y2   :     0.019224
      dxy     :     0.008696
 10 H s       :     0.891455  s :     0.891455
 11 H s       :     0.891156  s :     0.891156
 12 H s       :     0.894287  s :     0.894287
 13 H s       :     0.891806  s :     0.891806
 14 H s       :     0.890661  s :     0.890661
 15 H s       :     0.896335  s :     0.896335
 16 H s       :     0.896851  s :     0.896851
 17 H s       :     0.897115  s :     0.897115
 18 H s       :     0.892883  s :     0.892883
 19 H s       :     0.893945  s :     0.893945
 20 H s       :     0.891823  s :     0.891823
 21 H s       :     0.898885  s :     0.898885
 22 H s       :     0.896670  s :     0.896670
 23 H s       :     0.894635  s :     0.894635
 24 H s       :     0.893138  s :     0.893138
 25 H s       :     0.897437  s :     0.897437
 26 H s       :     0.894050  s :     0.894050
 27 H s       :     0.891637  s :     0.891637
 28 H s       :     0.890430  s :     0.890430
 29 H s       :     0.888914  s :     0.888914
 30 H s       :     0.892518  s :     0.892518
 31 H s       :     0.892549  s :     0.892549

SPIN
  0 C s       :     0.000000  s :     0.000000
      pz      :     0.000000  p :     0.000000
      px      :     0.000000
      py      :     0.000000
      dz2     :     0.000000  d :     0.000000
      dxz     :     0.000000
      dyz     :     0.000000
      dx2y2   :     0.000000
      dxy     :     0.000000
  1 C s       :     0.000000  s :     0.000000
      pz      :     0.000000  p :     0.000000
      px      :     0.000000
      py      :     0.000000
      dz2     :     0.000000  d :     0.000000
      dxz     :     0.000000
      dyz     :     0.000000
      dx2y2   :     0.000000
      dxy     :     0.000000
  2 C s       :     0.000000  s :     0.000000
      pz      :     0.000000  p :     0.000000
      px      :     0.000000
      py      :     0.000000
      dz2     :     0.000000  d :     0.000000
      dxz     :     0.000000
      dyz     :     0.000000
      dx2y2   :     0.000000
      dxy     :     0.000000
  3 C s       :     0.000000  s :     0.000000
      pz      :     0.000000  p :     0.000000
      px      :     0.000000
      py      :     0.000000
      dz2     :     0.000000  d :     0.000000
      dxz     :     0.000000
      dyz     :     0.000000
      dx2y2   :     0.000000
      dxy     :     0.000000
  4 C s       :     0.000000  s :     0.000000
      pz      :     0.000000  p :     0.000000
      px      :     0.000000
      py      :     0.000000
      dz2     :     0.000000  d :     0.000000
      dxz     :     0.000000
      dyz     :     0.000000
      dx2y2   :     0.000000
      dxy     :     0.000000
  5 C s       :     0.000000  s :     0.000000
      pz      :     0.000000  p :     0.000000
      px      :     0.000000
      py      :     0.000000
      dz2     :     0.000000  d :     0.000000
      dxz     :     0.000000
      dyz     :     0.000000
      dx2y2   :     0.000000
      dxy     :     0.000000
  6 C s       :     0.000000  s :     0.000000
      pz      :     0.000000  p :     0.000000
      px      :     0.000000
      py      :     0.000000
      dz2     :     0.000000  d :     0.000000
      dxz     :     0.000000
      dyz     :     0.000000
      dx2y2   :     0.000000
      dxy     :     0.000000
  7 C s       :     0.000000  s :     0.000000
      pz      :     0.000000  p :     0.000000
      px      :     0.000000
      py      :     0.000000
      dz2     :     0.000000  d :     0.000000
      dxz     :     0.000000
      dyz     :     0.000000
      dx2y2   :     0.000000
      dxy     :     0.000000
  8 C s       :     0.000000  s :     0.000000
      pz      :     0.000000  p :     0.000000
      px      :     0.000000
      py      :     0.000000
      dz2     :     0.000000  d :     0.000000
      dxz     :     0.000000
      dyz     :     0.000000
      dx2y2   :     0.000000
      dxy     :     0.000000
  9 C s       :     0.000000  s :     0.000000
      pz      :     0.000000  p :     0.000000
      px      :     0.000000
      py      :     0.000000
      dz2     :     0.000000  d :     0.000000
      dxz     :     0.000000
      dyz     :     0.000000
      dx2y2   :     0.000000
      dxy     :     0.000000
 10 H s       :     0.000000  s :     0.000000
 11 H s       :     0.000000  s :     0.000000
 12 H s       :     0.000000  s :     0.000000
 13 H s       :     0.000000  s :     0.000000
 14 H s       :     0.000000  s :     0.000000
 15 H s       :     0.000000  s :     0.000000
 16 H s       :     0.000000  s :     0.000000
 17 H s       :     0.000000  s :     0.000000
 18 H s       :     0.000000  s :     0.000000
 19 H s       :     0.000000  s :     0.000000
 20 H s       :     0.000000  s :     0.000000
 21 H s       :     0.000000  s :     0.000000
 22 H s       :     0.000000  s :     0.000000
 23 H s       :     0.000000  s :     0.000000
 24 H s       :     0.000000  s :     0.000000
 25 H s       :     0.000000  s :     0.000000
 26 H s       :     0.000000  s :     0.000000
 27 H s       :     0.000000  s :     0.000000
 28 H s       :     0.000000  s :     0.000000
 29 H s       :     0.000000  s :     0.000000
 30 H s       :     0.000000  s :     0.000000
 31 H s       :     0.000000  s :     0.000000


                      *****************************
                      * MAYER POPULATION ANALYSIS *
                      *****************************

  NA   - Mulliken gross atomic population
  ZA   - Total nuclear charge
  QA   - Mulliken gross atomic charge
  VA   - Mayer's total valence
  BVA  - Mayer's bonded valence
  FA   - Mayer's free valence

  ATOM       NA         ZA         QA         VA         BVA        FA
  0 C      6.2818     6.0000    -0.2818     4.0478     4.0478    -0.0000
  1 C      6.1106     6.0000    -0.1106     4.0910     4.0910     0.0000
  2 C      6.1895     6.0000    -0.1895     4.0893     4.0893    -0.0000
  3 C      6.1454     6.0000    -0.1454     4.1141     4.1141     0.0000
  4 C      6.1101     6.0000    -0.1101     4.0404     4.0404     0.0000
  5 C      6.1700     6.0000    -0.1700     4.1299     4.1299     0.0000
  6 C      6.1534     6.0000    -0.1534     4.1296     4.1296     0.0000
  7 C      6.1267     6.0000    -0.1267     4.0890     4.0890     0.0000
  8 C      6.1634     6.0000    -0.1634     4.1558     4.1558     0.0000
  9 C      6.2501     6.0000    -0.2501     3.9973     3.9973     0.0000
 10 H      0.9056     1.0000     0.0944     0.9556     0.9556     0.0000
 11 H      0.9057     1.0000     0.0943     0.9512     0.9512     0.0000
 12 H      0.9124     1.0000     0.0876     0.9496     0.9496     0.0000
 13 H      0.9360     1.0000     0.0640     0.9456     0.9456     0.0000
 14 H      0.9146     1.0000     0.0854     0.9582     0.9582     0.0000
 15 H      0.9217     1.0000     0.0783     0.9685     0.9685     0.0000
 16 H      0.9291     1.0000     0.0709     0.9459     0.9459     0.0000
 17 H      0.9384     1.0000     0.0616     0.9486     0.9486     0.0000
 18 H      0.9147     1.0000     0.0853     0.9530     0.9530     0.0000
 19 H      0.9213     1.0000     0.0787     0.9737     0.9737     0.0000
 20 H      0.9312     1.0000     0.0688     0.9476     0.9476     0.0000
 21 H      0.9289     1.0000     0.0711     0.9555     0.9555     0.0000
 22 H      0.9269     1.0000     0.0731     0.9500     0.9500     0.0000
 23 H      0.9299     1.0000     0.0701     0.9489     0.9489     0.0000
 24 H      0.9282     1.0000     0.0718     0.9617     0.9617     0.0000
 25 H      0.9403     1.0000     0.0597     0.9514     0.9514     0.0000
 26 H      0.9335     1.0000     0.0665     0.9570     0.9570     0.0000
 27 H      0.9326     1.0000     0.0674     0.9508     0.9508     0.0000
 28 H      0.9127     1.0000     0.0873     0.9497     0.9497     0.0000
 29 H      0.9082     1.0000     0.0918     0.9556     0.9556     0.0000
 30 H      0.9124     1.0000     0.0876     0.9506     0.9506     0.0000
 31 H      0.9149     1.0000     0.0851     0.9668     0.9668     0.0000

  Mayer bond orders larger than 0.100000
B(  0-C ,  1-C ) :   1.1478 B(  0-C , 10-H ) :   0.9574 B(  0-C , 11-H ) :   0.9576 
B(  0-C , 12-H ) :   0.9577 B(  1-C ,  2-C ) :   1.0683 B(  1-C , 13-H ) :   0.9287 
[...]
      px      :     0.000000
      py      :     0.000000
      dz2     :     0.000000  d :     0.000000
      dxz     :     0.000000
      dyz     :     0.000000
      dx2y2   :     0.000000
      dxy     :     0.000000
  9 C s       :    -0.000000  s :    -0.000000
      pz      :     0.000000  p :     0.000000
      px      :     0.000000
      py      :     0.000000
      dz2     :     0.000000  d :     0.000000
      dxz     :     0.000000
      dyz     :     0.000000
      dx2y2   :     0.000000
      dxy     :     0.000000
 10 H s       :     0.000000  s :     0.000000
 11 H s       :     0.000000  s :     0.000000
 12 H s       :     0.000000  s :     0.000000
 13 H s       :     0.000000  s :     0.000000
 14 H s       :     0.000000  s :     0.000000
 15 H s       :     0.000000  s :     0.000000
 16 H s       :     0.000000  s :     0.000000
 17 H s       :     0.000000  s :     0.000000
 18 H s       :     0.000000  s :     0.000000
 19 H s       :     0.000000  s :     0.000000
 20 H s       :     0.000000  s :     0.000000
 21 H s       :     0.000000  s :     0.000000
 22 H s       :     0.000000  s :     0.000000
 23 H s       :     0.000000  s :     0.000000
 24 H s       :     0.000000  s :     0.000000
 25 H s       :     0.000000  s :     0.000000
 26 H s       :     0.000000  s :     0.000000
 27 H s       :     0.000000  s :     0.000000
 28 H s       :     0.000000  s :     0.000000
 29 H s       :     0.000000  s :     0.000000
 30 H s       :     0.000000  s :     0.000000
 31 H s       :     0.000000  s :     0.000000


                     *******************************
                     * LOEWDIN POPULATION ANALYSIS *
                     *******************************

-------------------------------------------
LOEWDIN ATOMIC CHARGES AND SPIN POPULATIONS
-------------------------------------------
   0 C :   -0.321738    0.000000
   1 C :   -0.215411    0.000000
   2 C :   -0.214290    0.000000
   3 C :   -0.212441    0.000000
   4 C :   -0.206229    0.000000
   5 C :   -0.215547    0.000000
   6 C :   -0.207518    0.000000
   7 C :   -0.210704    0.000000
   8 C :   -0.221242    0.000000
   9 C :   -0.317719    0.000000
  10 H :    0.109056    0.000000
  11 H :    0.108148    0.000000
  12 H :    0.111182    0.000000
  13 H :    0.106487    0.000000
  14 H :    0.105191    0.000000
  15 H :    0.103837    0.000000
  16 H :    0.107443    0.000000
  17 H :    0.107550    0.000000
  18 H :    0.104013    0.000000
  19 H :    0.104042    0.000000
  20 H :    0.105604    0.000000
  21 H :    0.105542    0.000000
  22 H :    0.105545    0.000000
  23 H :    0.106288    0.000000
  24 H :    0.103672    0.000000
  25 H :    0.106195    0.000000
  26 H :    0.103777    0.000000
  27 H :    0.105109    0.000000
  28 H :    0.107055    0.000000
  29 H :    0.108855    0.000000
  30 H :    0.110140    0.000000
  31 H :    0.108108    0.000000

----------------------------------------------------
LOEWDIN REDUCED ORBITAL CHARGES AND SPIN POPULATIONS
----------------------------------------------------
CHARGE
  0 C s       :     2.952231  s :     2.952231
      pz      :     1.100245  p :     3.296215
      px      :     1.083618
      py      :     1.112351
      dz2     :     0.016525  d :     0.073291
      dxz     :     0.016045
      dyz     :     0.011987
      dx2y2   :     0.015022
      dxy     :     0.013711
  1 C s       :     2.911015  s :     2.911015
      pz      :     1.075532  p :     3.213771
      px      :     1.053144
      py      :     1.085094
      dz2     :     0.020218  d :     0.090625
      dxz     :     0.022216
      dyz     :     0.009731
      dx2y2   :     0.021669
      dxy     :     0.016791
  2 C s       :     2.913744  s :     2.913744
      pz      :     1.072406  p :     3.210623
      px      :     1.057622
      py      :     1.080595
      dz2     :     0.018111  d :     0.089924
      dxz     :     0.028581
      dyz     :     0.008575
      dx2y2   :     0.020139
      dxy     :     0.014518
  3 C s       :     2.911726  s :     2.911726
      pz      :     1.072560  p :     3.210659
      px      :     1.057173
      py      :     1.080926
      dz2     :     0.018080  d :     0.090057
      dxz     :     0.028662
      dyz     :     0.008626
      dx2y2   :     0.020129
      dxy     :     0.014560
  4 C s       :     2.911571  s :     2.911571
      pz      :     1.074793  p :     3.204271
      px      :     1.045761
      py      :     1.083716
      dz2     :     0.020442  d :     0.090387
      dxz     :     0.021803
      dyz     :     0.009647
      dx2y2   :     0.021891
      dxy     :     0.016604
  5 C s       :     2.912699  s :     2.912699
      pz      :     1.081253  p :     3.213087
      px      :     1.043307
      py      :     1.088527
      dz2     :     0.019002  d :     0.089761
      dxz     :     0.021069
      dyz     :     0.013131
      dx2y2   :     0.022665
      dxy     :     0.013894
  6 C s       :     2.911786  s :     2.911786
      pz      :     1.075625  p :     3.205481
      px      :     1.046270
      py      :     1.083586
      dz2     :     0.016831  d :     0.090251
      dxz     :     0.021984
      dyz     :     0.014708
      dx2y2   :     0.021678
      dxy     :     0.015050
  7 C s       :     2.913603  s :     2.913603
      pz      :     1.077900  p :     3.206999
      px      :     1.061137
      py      :     1.067962
      dz2     :     0.013960  d :     0.090101
      dxz     :     0.020085
      dyz     :     0.019935
      dx2y2   :     0.014067
      dxy     :     0.022055
  8 C s       :     2.912012  s :     2.912012
      pz      :     1.080737  p :     3.218788
      px      :     1.065215
      py      :     1.072835
      dz2     :     0.012876  d :     0.090442
      dxz     :     0.019886
      dyz     :     0.021207
      dx2y2   :     0.015370
      dxy     :     0.021103
  9 C s       :     2.952349  s :     2.952349
      pz      :     1.099307  p :     3.291911
      px      :     1.083346
      py      :     1.109258
      dz2     :     0.013416  d :     0.073459
      dxz     :     0.016725
      dyz     :     0.014223
      dx2y2   :     0.012709
      dxy     :     0.016386
 10 H s       :     0.890944  s :     0.890944
 11 H s       :     0.891852  s :     0.891852
 12 H s       :     0.888818  s :     0.888818
 13 H s       :     0.893513  s :     0.893513
 14 H s       :     0.894809  s :     0.894809
 15 H s       :     0.896163  s :     0.896163
 16 H s       :     0.892557  s :     0.892557
 17 H s       :     0.892450  s :     0.892450
 18 H s       :     0.895987  s :     0.895987
 19 H s       :     0.895958  s :     0.895958
 20 H s       :     0.894396  s :     0.894396
 21 H s       :     0.894458  s :     0.894458
 22 H s       :     0.894455  s :     0.894455
 23 H s       :     0.893712  s :     0.893712
 24 H s       :     0.896328  s :     0.896328
 25 H s       :     0.893805  s :     0.893805
 26 H s       :     0.896223  s :     0.896223
 27 H s       :     0.894891  s :     0.894891
 28 H s       :     0.892945  s :     0.892945
 29 H s       :     0.891145  s :     0.891145
 30 H s       :     0.889860  s :     0.889860
 31 H s       :     0.891892  s :     0.891892

SPIN
  0 C s       :     0.000000  s :     0.000000
      pz      :     0.000000  p :     0.000000
      px      :     0.000000
      py      :     0.000000
      dz2     :     0.000000  d :     0.000000
      dxz     :     0.000000
      dyz     :     0.000000
      dx2y2   :     0.000000
      dxy     :     0.000000
  1 C s       :     0.000000  s :     0.000000
      pz      :     0.000000  p :     0.000000
      px      :     0.000000
      py      :     0.000000
      dz2     :     0.000000  d :     0.000000
      dxz     :     0.000000
      dyz     :     0.000000
      dx2y2   :     0.000000
      dxy     :     0.000000
  2 C s       :     0.000000  s :     0.000000
      pz      :     0.000000  p :     0.000000
      px      :     0.000000
      py      :     0.000000
      dz2     :     0.000000  d :     0.000000
      dxz     :     0.000000
      dyz     :     0.000000
      dx2y2   :     0.000000
      dxy     :     0.000000
  3 C s       :     0.000000  s :     0.000000
      pz      :     0.000000  p :     0.000000
      px      :     0.000000
      py      :     0.000000
      dz2     :     0.000000  d :     0.000000
      dxz     :     0.000000
      dyz     :     0.000000
      dx2y2   :     0.000000
      dxy     :     0.000000
  4 C s       :     0.000000  s :     0.000000
      pz      :     0.000000  p :     0.000000
      px      :     0.000000
      py      :     0.000000
      dz2     :     0.000000  d :     0.000000
      dxz     :     0.000000
      dyz     :     0.000000
      dx2y2   :     0.000000
      dxy     :     0.000000
  5 C s       :     0.000000  s :     0.000000
      pz      :     0.000000  p :     0.000000
      px      :     0.000000
      py      :     0.000000
      dz2     :     0.000000  d :     0.000000
      dxz     :     0.000000
      dyz     :     0.000000
      dx2y2   :     0.000000
      dxy     :     0.000000
  6 C s       :     0.000000  s :     0.000000
      pz      :     0.000000  p :     0.000000
      px      :     0.000000
      py      :     0.000000
      dz2     :     0.000000  d :     0.000000
      dxz     :     0.000000
      dyz     :     0.000000
      dx2y2   :     0.000000
      dxy     :     0.000000
  7 C s       :     0.000000  s :     0.000000
      pz      :     0.000000  p :     0.000000
      px      :     0.000000
      py      :     0.000000
      dz2     :     0.000000  d :     0.000000
      dxz     :     0.000000
      dyz     :     0.000000
      dx2y2   :     0.000000
      dxy     :     0.000000
  8 C s       :     0.000000  s :     0.000000
      pz      :     0.000000  p :     0.000000
      px      :     0.000000
      py      :     0.000000
      dz2     :     0.000000  d :     0.000000
      dxz     :     0.000000
      dyz     :     0.000000
      dx2y2   :     0.000000
      dxy     :     0.000000
  9 C s       :     0.000000  s :     0.000000
      pz      :     0.000000  p :     0.000000
      px      :     0.000000
      py      :     0.000000
      dz2     :     0.000000  d :     0.000000
      dxz     :     0.000000
      dyz     :     0.000000
      dx2y2   :     0.000000
      dxy     :     0.000000
 10 H s       :     0.000000  s :     0.000000
 11 H s       :     0.000000  s :     0.000000
 12 H s       :     0.000000  s :     0.000000
 13 H s       :     0.000000  s :     0.000000
 14 H s       :     0.000000  s :     0.000000
 15 H s       :     0.000000  s :     0.000000
 16 H s       :     0.000000  s :     0.000000
 17 H s       :     0.000000  s :     0.000000
 18 H s       :     0.000000  s :     0.000000
 19 H s       :     0.000000  s :     0.000000
 20 H s       :     0.000000  s :     0.000000
 21 H s       :     0.000000  s :     0.000000
 22 H s       :     0.000000  s :     0.000000
 23 H s       :     0.000000  s :     0.000000
 24 H s       :     0.000000  s :     0.000000
 25 H s       :     0.000000  s :     0.000000
 26 H s       :     0.000000  s :     0.000000
 27 H s       :     0.000000  s :     0.000000
 28 H s       :     0.000000  s :     0.000000
 29 H s       :     0.000000  s :     0.000000
 30 H s       :     0.000000  s :     0.000000
 31 H s       :     0.000000  s :     0.000000


                      *****************************
                      * MAYER POPULATION ANALYSIS *
                      *****************************

  NA   - Mulliken gross atomic population
  ZA   - Total nuclear charge
  QA   - Mulliken gross atomic charge
  VA   - Mayer's total valence
  BVA  - Mayer's bonded valence
  FA   - Mayer's free valence

  ATOM       NA         ZA         QA         VA         BVA        FA
  0 C      6.2669     6.0000    -0.2669     4.0116     4.0116     0.0000
  1 C      6.1136     6.0000    -0.1136     4.1105     4.1105     0.0000
  2 C      6.1749     6.0000    -0.1749     4.0949     4.0949     0.0000
  3 C      6.1426     6.0000    -0.1426     4.0865     4.0865     0.0000
  4 C      6.0916     6.0000    -0.0916     4.0778     4.0778     0.0000
  5 C      6.2025     6.0000    -0.2025     4.1044     4.1044     0.0000
  6 C      6.1008     6.0000    -0.1008     4.0828     4.0828     0.0000
  7 C      6.1280     6.0000    -0.1280     4.0859     4.0859     0.0000
  8 C      6.1862     6.0000    -0.1862     4.1325     4.1325     0.0000
  9 C      6.2313     6.0000    -0.2313     4.0042     4.0042     0.0000
 10 H      0.9014     1.0000     0.0986     0.9558     0.9558     0.0000
 11 H      0.9161     1.0000     0.0839     0.9578     0.9578     0.0000
 12 H      0.9101     1.0000     0.0899     0.9515     0.9515     0.0000
 13 H      0.9330     1.0000     0.0670     0.9468     0.9468     0.0000
 14 H      0.9329     1.0000     0.0671     0.9514     0.9514     0.0000
 15 H      0.9360     1.0000     0.0640     0.9559     0.9559     0.0000
 16 H      0.9171     1.0000     0.0829     0.9502     0.9502     0.0000
 17 H      0.9229     1.0000     0.0771     0.9538     0.9538     0.0000
 18 H      0.9377     1.0000     0.0623     0.9576     0.9576     0.0000
 19 H      0.9384     1.0000     0.0616     0.9574     0.9574     0.0000
 20 H      0.9394     1.0000     0.0606     0.9534     0.9534     0.0000
 21 H      0.9235     1.0000     0.0765     0.9549     0.9549     0.0000
 22 H      0.9237     1.0000     0.0763     0.9563     0.9563     0.0000
 23 H      0.9361     1.0000     0.0639     0.9520     0.9520     0.0000
 24 H      0.9387     1.0000     0.0613     0.9580     0.9580     0.0000
 25 H      0.9319     1.0000     0.0681     0.9511     0.9511     0.0000
 26 H      0.9361     1.0000     0.0639     0.9559     0.9559     0.0000
 27 H      0.9309     1.0000     0.0691     0.9504     0.9504     0.0000
 28 H      0.9147     1.0000     0.0853     0.9475     0.9475     0.0000
 29 H      0.9151     1.0000     0.0849     0.9577     0.9577     0.0000
 30 H      0.9116     1.0000     0.0884     0.9521     0.9521     0.0000
 31 H      0.9145     1.0000     0.0855     0.9578     0.9578     0.0000

  Mayer bond orders larger than 0.100000
B(  0-C ,  1-C ) :   1.1313 B(  0-C , 10-H ) :   0.9563 B(  0-C , 11-H ) :   0.9610 
B(  0-C , 12-H ) :   0.9585 B(  1-C ,  2-C ) :   1.1089 B(  1-C , 13-H ) :   0.9366 
B(  1-C , 14-H ) :   0.9328 B(  2-C ,  3-C ) :   1.1159 B(  2-C , 15-H ) :   0.9294 
B(  2-C , 16-H ) :   0.9287 B(  3-C ,  4-C ) :   1.1122 B(  3-C , 17-H ) :   0.9274 
B(  3-C , 18-H ) :   0.9249 B(  4-C ,  5-C ) :   1.1179 B(  4-C , 19-H ) :   0.9242 
B(  4-C , 20-H ) :   0.9280 B(  5-C ,  6-C ) :   1.1178 B(  5-C , 21-H ) :   0.9242 
B(  5-C , 22-H ) :   0.9258 B(  6-C ,  7-C ) :   1.1146 B(  6-C , 23-H ) :   0.9282 
B(  6-C , 24-H ) :   0.9245 B(  7-C ,  8-C ) :   1.1146 B(  7-C , 25-H ) :   0.9313 
B(  7-C , 26-H ) :   0.9263 B(  8-C ,  9-C ) :   1.1367 B(  8-C , 27-H ) :   0.9350 
B(  8-C , 28-H ) :   0.9314 B(  9-C , 29-H ) :   0.9587 B(  9-C , 30-H ) :   0.9597 
B(  9-C , 31-H ) :   0.9594 

-------
TIMINGS
-------

Total SCF time: 0 days 0 hours 2 min 4 sec 

Total time                  ....     124.023 sec
Sum of individual times     ....     110.628 sec  ( 89.2%)

Fock matrix formation       ....     100.806 sec  ( 81.3%)
  XC integration            ....      37.226 sec  ( 36.9% of F)
    Basis function eval.    ....       2.038 sec  (  5.5% of XC)
    Density eval.           ....       1.889 sec  (  5.1% of XC)
    XC-Functional eval.     ....       0.400 sec  (  1.1% of XC)
    XC-Potential eval.      ....       2.227 sec  (  6.0% of XC)
Diagonalization             ....       0.142 sec  (  0.1%)
Density matrix formation    ....       3.326 sec  (  2.7%)
Population analysis         ....       2.062 sec  (  1.7%)
Initial guess               ....       0.016 sec  (  0.0%)
Orbital Transformation      ....       0.000 sec  (  0.0%)
Orbital Orthonormalization  ....       0.007 sec  (  0.0%)
DIIS solution               ....       1.052 sec  (  0.8%)
Grid generation             ....       3.223 sec  (  2.6%)


-------------------------------------------------------------------------------
                          DFT DISPERSION CORRECTION                            
                                                                               
                              DFTD3 V3.1  Rev 1                                
                          USING Becke-Johnson damping                          
-------------------------------------------------------------------------------
The B3LYP functional is recognized
Active option DFTDOPT                   ...         4   

molecular C6(AA) [au] = 6609.706348 


            DFT-D V3
 parameters
 s6 scaling factor         :     1.0000 
 a1 scaling factor         :     0.3981 
 s8 scaling factor         :     1.9889 
 a2 scaling factor         :     4.4211 
 ad hoc parameters k1-k3   :    16.0000     1.3333    -4.0000 

 Edisp/kcal,au: -28.028271888616  -0.044665889612 
 E6   /kcal   : -14.079599046 
 E8   /kcal   : -13.948672843 
 % E8         :  49.766439039 

-------------------------   ----------------
Dispersion correction           -0.044665890
-------------------------   ----------------


-------------------------   --------------------
FINAL SINGLE POINT ENERGY      -393.748061519777
-------------------------   --------------------

                                *** OPTIMIZATION RUN DONE ***

                            ***************************************
                            *     ORCA property calculations      *
                            ***************************************

                                    ---------------------
                                    Active property flags
                                    ---------------------
   (+) Dipole Moment


------------------------------------------------------------------------------
                       ORCA ELECTRIC PROPERTIES CALCULATION
------------------------------------------------------------------------------

Dipole Moment Calculation                       ... on
Quadrupole Moment Calculation                   ... off
Polarizability Calculation                      ... off
GBWName                                         ... orca2.gbw
Electron density file                           ... orca2.scfp
The origin for moment calculation is the CENTER OF MASS  = (-0.004606,  0.028655 -0.055511)

-------------
DIPOLE MOMENT
-------------
                                X             Y             Z
Electronic contribution:     -0.06804       0.72040      -0.95507
Nuclear contribution   :      0.07987      -0.73540       0.96268
                        -----------------------------------------
Total Dipole Moment    :      0.01183      -0.01499       0.00761
                        -----------------------------------------
Magnitude (a.u.)       :      0.02056
Magnitude (Debye)      :      0.05226



--------------------
Rotational spectrum 
--------------------
 
Rotational constants in cm-1:     0.104997     0.011242     0.010642 
Rotational constants in MHz :  3147.743295   337.025985   319.048075 

 Dipole components along the rotational axes: 
x,y,z [a.u.] :    -0.012701     0.014014    -0.008066 
x,y,z [Debye]:    -0.032283     0.035620    -0.020502 

 

Timings for individual modules:

Sum of individual times         ...     7622.798 sec (= 127.047 min)
GTO integral calculation        ...      156.763 sec (=   2.613 min)   2.1 %
SCF iterations                  ...     6690.747 sec (= 111.512 min)  87.8 %
SCF Gradient evaluation         ...      693.539 sec (=  11.559 min)   9.1 %
Geometry relaxation             ...       81.749 sec (=   1.362 min)   1.1 %
                             ****ORCA TERMINATED NORMALLY****
TOTAL RUN TIME: 0 days 2 hours 10 minutes 20 seconds 688 msec
