14
Properties=species:S:1:pos:R:3 energy=-4305.170793189098 smiles=CCCC name=tbu config_type=start_0 pbc="F F F"
C        0.04229770       0.03707709      -0.48338384
C        0.39542110       1.33302087       0.34262766
C       -1.47072239      -0.19751125      -0.21772003
C        0.92735842      -1.11224856      -0.04634038
H        0.23191882       0.42366538      -1.50913459
H        0.02320957       2.39096188      -0.02946819
H        1.46384444       1.51829916       0.22105631
H        0.35515753       1.15616632       1.52680589
H       -1.58343955       0.12290597       1.00279742
H       -2.04547923       0.36769556      -1.25680472
H       -1.78009755      -1.31697566      -0.27966746
H        1.14563617      -1.08660030       1.07261245
H        1.88416686      -0.90528324      -0.68110622
H        0.54350455      -2.27441361      -0.17721134
14
Properties=species:S:1:pos:R:3 energy=-4305.170793189098 smiles=CCCC name=tbu config_type=start_1 pbc="F F F"
C       -0.03062057       0.04191481      -0.38099429
C        0.51993473       1.34165312       0.21911010
C       -1.55926840      -0.18085373      -0.22602494
C        0.96340492      -1.13688665      -0.01940951
H        0.11122528       0.19114164      -1.55629851
H       -0.10895945       2.31643474       0.00149933
H        1.54036544       1.69600403       0.05484094
H        0.49369462       1.19688085       1.30903552
H       -1.82108782      -0.39656025       0.92666161
H       -2.29990044       0.60787898      -0.53404626
H       -1.73458033      -1.10707781      -0.79464772
H        0.73708320      -1.71271069       1.01227235
H        2.03049326      -0.41486916       0.21837071
H        1.30086841      -2.04462945      -0.71934267
14
Properties=species:S:1:pos:R:3 energy=-4305.170793189098 smiles=CCCC name=tbu config_type=start_2 pbc="F F F"
C       -0.14985909       0.08877125      -0.40314985
C        0.62979827       1.38267625       0.26871622
C       -1.48433282      -0.35925548      -0.20978558
C        0.86523437      -0.97544987      -0.01325166
H        0.29040577       0.20244048      -1.43014427
H        0.43075487       2.33668904      -0.43388618
H        1.83199336       1.11908383       0.14794301
H        0.36980919       1.51306361       1.37174734
H       -1.56132381      -0.97770119       0.66380821
H       -2.08080742       0.50610614      -0.40273041
H       -1.76934859      -1.24045043      -0.87030705
H        0.28329100      -1.53240171       0.93199451
H        1.93810043      -0.43019634       0.10557608
H        0.90571237      -2.00807837      -0.75988453
14
Properties=species:S:1:pos:R:3 energy=-4305.170793189098 smiles=CCCC name=tbu config_type=start_3 pbc="F F F"
C        0.07947742       0.02884890      -0.51429941
C        0.45986265       1.33158384       0.25725783
C       -1.41928731      -0.25393615      -0.19523136
C        0.84341095      -1.03879532       0.05279938
H        0.09000697       0.32524547      -1.49547260
H       -0.22548235       2.21256189      -0.17929684
H        1.56139491       1.69669065       0.22768286
H        0.27163651       1.13658973       1.37026389
H       -1.45158083      -0.89976985       0.88936107
H       -2.09925830       0.75168333      -0.08782922
H       -1.76167398      -0.90255610      -1.16495338
H        0.68160696      -1.09985092       1.06023662
H        1.98205560      -0.93130585      -0.40807503
H        0.36637399      -1.97789444      -0.38669049
14
Properties=species:S:1:pos:R:3 energy=-4305.170793189098 smiles=CCCC name=tbu config_type=start_4 pbc="F F F"
C        0.03451304       0.01670384      -0.47211422
C        0.39261524       1.37346054       0.30122434
C       -1.41725407      -0.13617493      -0.20588000
C        0.93644489      -1.15418785      -0.03160482
H        0.05830168       0.08682756      -1.59738840
H       -0.26945959       2.15401460      -0.25030712
H        1.53224999       1.34734846       0.27597395
H        0.15455778       1.24705239       1.40941542
H       -1.61052993      -0.07786014       0.98058346
H       -2.14362776       0.59086636      -0.58322562
H       -1.83770363      -1.21525862      -0.51362508
H        0.90878410      -1.44947623       1.02523074
H        1.97527551      -0.67572455      -0.16329629
H        0.85171248      -2.08048852      -0.65190878
14
Properties=species:S:1:pos:R:3 energy=-4305.170793189098 smiles=CCCC name=tbu config_type=start_5 pbc="F F F"
C        0.14682088       0.08750624      -0.45675270
C        0.34537922       1.39151135       0.24798064
C       -1.36800760      -0.17815974      -0.13308681
C        0.85586220      -1.25043688      -0.04614775
H        0.28075045       0.38785739      -1.52383042
H       -0.36683531       2.16663433      -0.28228389
H        1.41765486       1.91378632       0.32408720
H       -0.17955339       1.38104716       1.37819721
H       -1.54302299       0.01278488       0.95459458
H       -2.01576739       0.50574052      -0.71957780
H       -1.61783467      -1.30987530      -0.37633790
H        0.79707313      -1.68669500       1.06116645
H        2.03916204      -1.00843867      -0.17826655
H        0.40596784      -1.84748688      -0.94901034
14
Properties=species:S:1:pos:R:3 energy=-4305.170793189098 smiles=CCCC name=tbu config_type=start_6 pbc="F F F"
C       -0.04807165       0.09277747      -0.33420935
C        0.48555442       1.26191230       0.30423408
C       -1.54682500      -0.19822788      -0.28947695
C        1.06703273      -1.15852559      -0.02019140
H       -0.09984582       0.41842601      -1.37024139
H       -0.26835413       2.02665978      -0.03599407
H        1.52195918       1.67616974      -0.28670203
H        0.41501557       1.49191198       1.37523709
H       -1.96360540      -0.40233600       0.70494397
H       -2.12956273       0.76251401      -0.68600394
H       -1.87818495      -0.95272085      -1.06861978
H        1.26043435      -0.71043839       1.21892154
H        2.08367402      -0.96659088      -0.63325793
H        0.54185008      -2.20210814      -0.10539260
14
Properties=species:S:1:pos:R:3 energy=-4305.170793189098 smiles=CCCC name=tbu config_type=start_7 pbc="F F F"
C        0.04678343      -0.02649039      -0.43400665
C        0.35285348       1.40406720       0.30648196
C       -1.38885197      -0.14382376      -0.21268341
C        0.93582588      -1.16683426      -0.06190543
H        0.23759785       0.05576007      -1.57524584
H       -0.44598223       2.20124332       0.16858885
H        1.35496812       1.90718930       0.18964677
H        0.26656350       1.16021857       1.45452082
H       -1.75034795       0.15121924       0.82075842
H       -1.93636407       0.68479038      -0.98561139
H       -1.81088222      -1.13557578      -0.40049737
H        1.23670072      -1.35887461       1.11050710
H        1.98173205      -1.10854031      -0.60683514
H        0.48143522      -2.23914545      -0.31834901
14
Properties=species:S:1:pos:R:3 energy=-4305.170793189098 smiles=CCCC name=tbu config_type=start_8 pbc="F F F"
C        0.07043863      -0.03454539      -0.46569665
C        0.39307181       1.33555295       0.28913069
C       -1.49544957      -0.17990844      -0.20721477
C        0.97024258      -1.08425253       0.02751235
H        0.14820157       0.01784432      -1.52637475
H       -0.19677067       2.12767330      -0.18325947
H        1.46362095       1.67417668       0.24140350
H        0.19790079       1.42129149       1.37422010
H       -1.56393052      -0.71723787       0.72112601
H       -1.75137058       0.97769641      -0.22868558
H       -1.97095611      -0.75683491      -1.08289065
H        1.08583546      -1.05204965       1.06903845
H        1.83739048      -0.89886329      -0.66306394
H        0.46503528      -2.11472398      -0.41093793
14
Properties=species:S:1:pos:R:3 energy=-4305.170793189098 smiles=CCCC name=tbu config_type=start_9 pbc="F F F"
C       -0.04122149       0.04889496      -0.39054050
C        0.44525261       1.30174215       0.32165588
C       -1.43930375      -0.21895943      -0.29567005
C        0.96337964      -1.08011156      -0.02588035
H        0.10984562       0.48328174      -1.44734296
H       -0.21611879       2.23261810       0.11955054
H        1.47373994       1.50933313      -0.04260073
H        0.54578476       1.24799415       1.45377108
H       -1.80806332      -0.78981417       0.66419337
H       -1.91027713       0.73202092      -0.74326996
H       -1.67240076      -1.10820257      -0.87560752
H        1.46939861      -0.23720384       1.26312590
H        1.87593028      -1.32952453      -0.94957930
H       -0.03202438      -2.23806448       0.27643122
14
Properties=species:S:1:pos:R:3 energy=-4305.170793189098 smiles=CCCC name=tbu config_type=start_10 pbc="F F F"
C        0.10386555       0.11648209      -0.41311614
C        0.45595890       1.40403330       0.27369374
C       -1.40238305      -0.34162739      -0.20156901
C        0.85975095      -1.10873601      -0.05647848
H       -0.08388497       0.35192139      -1.56735620
H        0.12623095       2.47570406      -0.25948558
H        1.74517437       1.27872646       0.33953164
H       -0.13699837       1.58100916       1.33514994
H       -1.72739932      -0.54517051       0.86621998
H       -2.17871830       0.58020939      -0.39535395
H       -1.69410163      -1.21305832      -0.81158742
H        0.67511547      -1.18467049       1.10715638
H        1.91051967      -1.03436454      -0.40150057
H        0.13958889      -2.00874580      -0.41128343
14
Properties=species:S:1:pos:R:3 energy=-4305.170793189098 smiles=CCCC name=tbu config_type=start_11 pbc="F F F"
C       -0.08261251       0.07442552      -0.45900443
C        0.59374829       1.31032302       0.29743267
C       -1.56226300      -0.28118382      -0.24930735
C        0.93114584      -1.00874293       0.06498021
H       -0.06351259       0.00917108      -1.64999530
H        0.00171540       2.30955836       0.06993415
H        1.65047826       1.40659800      -0.22112826
H        1.02547695       1.16576797       1.45146123
H       -2.02012551      -0.89663403       0.69337593
H       -2.19609179       0.59963190      -0.37127888
H       -1.60776366      -1.06195331      -1.40918022
H        0.98933538      -1.10740456       1.15821769
H        1.86908342      -0.47921908      -0.21942310
H        0.76027613      -1.95775636      -0.31518030
14
Properties=species:S:1:pos:R:3 energy=-4305.170793189098 smiles=CCCC name=tbu config_type=start_12 pbc="F F F"
C        0.02651927       0.10648148      -0.48571640
C        0.44934280       1.34768571       0.30224947
C       -1.39817827      -0.19367095      -0.21648019
C        0.85461577      -1.14567189      -0.03996836
H        0.32212899       0.17036069      -1.63769653
H       -0.35659019       2.19926730      -0.10298637
H        1.45411283       1.82539018       0.07787639
H        0.29824086       1.17353430       1.36962470
H       -1.27881630      -0.33469655       0.94097271
H       -2.31484990       0.46167837      -0.53621770
H       -1.50101494      -1.36810357      -0.41859889
H        0.61757403      -1.38958850       1.08507016
H        1.97621540      -0.95072196      -0.01102119
H        0.56916254      -2.03902835      -0.45964520
14
Properties=species:S:1:pos:R:3 energy=-4305.170793189098 smiles=CCCC name=tbu config_type=start_13 pbc="F F F"
C        0.10228873       0.10838610      -0.45361430
C        0.36402872       1.35988787       0.15172058
C       -1.33827115      -0.20147775      -0.11926517
C        0.81494697      -1.21663067      -0.00346473
H        0.31049650       0.42590729      -1.58233240
H       -0.36200835       2.03781175      -0.28286190
H        1.44420996       1.62967580       0.12786327
H       -0.21277480       1.50806938       1.26704729
H       -0.99605621      -0.75035405       1.01297204
H       -1.91409701       0.89343895       0.23591380
H       -1.74770501      -0.85345516      -1.02048583
H        0.09178653      -1.75299402       0.95341144
H        2.03194820      -0.71661200       0.55158535
H        1.01372517      -1.90071053      -1.13922271
14
Properties=species:S:1:pos:R:3 energy=-4305.170793189098 smiles=CCCC name=tbu config_type=start_14 pbc="F F F"
C       -0.05643710       0.08871527      -0.58199165
C        0.49136699       1.16926563       0.36018506
C       -1.51340788      -0.21058585      -0.20399061
C        1.01359999      -0.98353149      -0.04042384
H        0.02657944       0.29513187      -1.74185442
H        0.38189176       2.30727613      -0.10234481
H        1.59489682       1.20443649       0.53291094
H       -0.15811181       1.03953667       1.39012996
H       -1.53206545       0.20779182       0.89482307
H       -2.22494229       0.40008015      -0.95913623
H       -1.90018819      -1.39504529      -0.17672424
H        0.98233541      -0.77684752       1.14758228
H        2.02851529      -0.73068829      -0.31820617
H        0.55439745      -2.19682459      -0.04564076
14
Properties=species:S:1:pos:R:3 energy=-4305.170793189098 smiles=CCCC name=tbu config_type=start_15 pbc="F F F"
C        0.04148998      -0.01765799      -0.38161406
C        0.38265934       1.42559953       0.27204273
C       -1.40379579      -0.14718978      -0.29658186
C        0.92183433      -1.19588152       0.03570747
H        0.14270380       0.21352609      -1.44358054
H       -0.43426138       2.06639857      -0.27826464
H        1.41378338       1.79688421      -0.02503988
H        0.31112856       1.49312770       1.35943125
H       -1.36675239      -1.26554486       0.69630449
H       -2.07683009       0.97311401       0.24581434
H       -1.87988614      -0.60448962      -1.28321717
H        1.24226058      -1.08252884       1.19525460
H        1.93535160      -1.01479291      -0.74448501
H        0.38088941      -2.22983524      -0.24287172
14
Properties=species:S:1:pos:R:3 energy=-4305.170793189098 smiles=CCCC name=tbu config_type=start_16 pbc="F F F"
C        0.03056496       0.12796892      -0.27646643
C        0.48590013       1.52270011       0.25310457
C       -1.45042518      -0.28802996      -0.20619968
C        0.87247951      -1.28343320      -0.07720722
H        0.08889737       0.26673151      -1.33841595
H       -0.10177954       2.24987680      -0.45955217
H        1.61245806       1.67881762       0.08342519
H        0.15374873       2.05722748       1.34006989
H       -1.68919685      -0.43688677       0.80591052
H       -2.19239321       0.47342412      -0.72837718
H       -1.48029258      -1.31047492      -0.63796054
H        0.52734292      -1.93766090       0.86479866
H        2.04757735      -0.88814594      -0.06429737
H        0.74636980      -1.97990662      -1.14551866
14
Properties=species:S:1:pos:R:3 energy=-4305.170793189098 smiles=CCCC name=tbu config_type=start_17 pbc="F F F"
C        0.03033639       0.10009041      -0.40581905
C        0.50662841       1.38971535       0.25462010
C       -1.48149156      -0.24379964      -0.27166817
C        0.88250391      -1.12186399      -0.00082084
H        0.14614095       0.30203826      -1.44377971
H       -0.41005243       2.14927105       0.25956988
H        1.47821559       1.73133404       0.07731902
H        0.57397686       1.11732887       1.33587678
H       -1.63566658      -0.18638892       0.83689530
H       -2.20767516       0.37740917      -0.75503336
H       -1.68062083      -1.39426069      -0.36698638
H        0.90461569      -1.40430162       1.06418404
H        1.95105768      -1.03694895      -0.24346272
H        0.59818474      -2.01888093      -0.65041761
14
Properties=species:S:1:pos:R:3 energy=-4305.170793189098 smiles=CCCC name=tbu config_type=start_18 pbc="F F F"
C       -0.02676471       0.15369450      -0.31923438
C        0.47559625       1.43369941       0.24107189
C       -1.49752135      -0.26106061      -0.19741659
C        0.93517008      -1.20199057      -0.11536580
H        0.27281044       0.13892302      -1.47343488
H        0.32726821       2.44494819      -0.47154114
H        1.70709993       1.20340616       0.58007491
H       -0.04224057       1.63120929       1.35980578
H       -1.70137531       0.06726993       0.85645925
H       -2.35290887       0.25078190      -0.96311199
H       -1.55587351      -1.52805378      -0.18833026
H        0.83215181      -1.90623289       0.98173515
H        2.01340664      -0.74272629       0.06598002
H        0.83300543      -1.92514660      -1.02414825
14
Properties=species:S:1:pos:R:3 energy=-4305.170793189098 smiles=CCCC name=tbu config_type=start_19 pbc="F F F"
C       -0.00101459       0.15634015      -0.52476903
C        0.45621707       1.33333158       0.28344171
C       -1.36478180      -0.22088524      -0.23158296
C        0.82580442      -1.13675769       0.02555682
H        0.25796295       0.09895057      -1.52638681
H       -0.88541758       1.88504895       0.57018065
H        1.28425012       2.17376535      -0.49488102
H        1.06371120       0.79040501       1.45552790
H       -1.55493609      -0.23911215       0.97713252
H       -1.90321869       0.54471330      -0.72718567
H       -1.65491674      -1.22065366      -0.63467864
H        0.68058187      -1.23639784       1.06468213
H        2.01482465      -1.11047038       0.15211786
H        0.67349518      -2.14377704      -0.44032439
14
Properties=species:S:1:pos:R:3 energy=-4305.170793189098 smiles=CCCC name=tbu config_type=start_20 pbc="F F F"
C        0.04329295       0.04169967      -0.27719817
C        0.42756792       1.38551638       0.18678458
C       -1.52787899      -0.19082333      -0.18264861
C        1.00599041      -1.13844514      -0.05879401
H       -0.02568151       0.13806227      -1.50953664
H       -0.15595230       2.10761423      -0.24978233
H        1.54404661       1.36652971      -0.14053365
H        0.44990415       1.38900483       1.22965303
H       -2.00872709      -0.48238216       0.85007145
H       -2.01834369       0.79801840      -0.49432221
H       -1.83159602      -0.88920890      -0.96581085
H        0.40219058      -1.95931430       0.95149264
H        2.13781731      -0.62233357       0.39137999
H        1.09423897      -1.89566985      -1.04390374
14
Properties=species:S:1:pos:R:3 energy=-4305.170793189098 smiles=CCCC name=tbu config_type=start_21 pbc="F F F"
C       -0.07777008       0.07923210      -0.49362439
C        0.51096950       1.38707267       0.28522719
C       -1.41234780      -0.27019897      -0.19119708
C        0.88701116      -1.10461284       0.01335719
H        0.08092822       0.29460610      -1.56728365
H        0.10913561       2.29270847      -0.16170559
H        1.58196935       1.58418817      -0.04270291
H        0.21020018       1.45993174       1.39895086
H       -1.48928203      -0.41112028       0.95519340
H       -2.14668901       0.55030362      -0.49366299
H       -1.57775224      -1.18596804      -0.67567696
H        0.34991664      -1.80144534       1.01922767
H        2.02271096      -0.79508953       0.16642946
H        0.93669932      -1.96130727      -0.93167083
14
Properties=species:S:1:pos:R:3 energy=-4305.170793189098 smiles=CCCC name=tbu config_type=start_22 pbc="F F F"
C        0.03677338       0.05811222      -0.43782349
C        0.43835569       1.33942463       0.24821334
C       -1.46994736      -0.22802714      -0.19611442
C        0.91258331      -1.10634423       0.01135320
H        0.51339686       0.07033201      -1.53063829
H       -0.15346815       2.31682291       0.13700466
H        1.36862705       1.57852766      -0.11380512
H        0.61029745       1.26883817       1.44778119
H       -1.89123074      -0.63454709       0.75408124
H       -2.14056181       0.65102484      -0.32011920
H       -1.78173866      -0.98817574      -1.15127118
H        0.91347721      -1.10098599       1.10604057
H        1.97420361      -0.90299013      -0.32085228
H        0.54622092      -1.89408839      -0.48201668
14
Properties=species:S:1:pos:R:3 energy=-4305.170793189098 smiles=CCCC name=tbu config_type=start_23 pbc="F F F"
C        0.00329143       0.11455523      -0.45345263
C        0.44396504       1.37512507       0.23397319
C       -1.42826241      -0.22241436      -0.18957566
C        0.91145167      -1.16617411       0.01378958
H       -0.05134360       0.34065062      -1.53653771
H       -0.35366781       2.17854616      -0.15179240
H        1.56907568       1.71225397      -0.13572274
H        0.43258443       1.24530867       1.29404911
H       -1.42574889      -0.86651519       0.91114263
H       -2.08250575       0.73433991      -0.20408877
H       -1.69057491      -0.83460618      -1.15170243
H        0.51079392      -1.56322317       1.04154819
H        2.06275113      -1.00199458       0.31112806
H        0.83698131      -2.03141226      -0.60343322
14
Properties=species:S:1:pos:R:3 energy=-4305.170793189098 smiles=CCCC name=tbu config_type=start_24 pbc="F F F"
C        0.02022143       0.09955245      -0.47085773
C        0.47352241       1.26964770       0.25558995
C       -1.50448158      -0.22600164      -0.27300035
C        0.94325294      -1.06904487       0.04243504
H        0.19579376       0.13877984      -1.59618913
H       -0.40950509       2.18181300       0.19428904
H        1.50576557       1.72613894       0.09221866
H        0.52808429       0.95328240       1.38343934
H       -1.56728357      -0.64061852       0.74118442
H       -2.07630389       0.82187930      -0.10220553
H       -1.91778333      -1.07300600      -0.91291161
H        0.99575519      -0.71812411       1.20056502
H        2.03374463      -1.09888573      -0.40959578
H        0.49502960      -2.05743130      -0.21271357
