14
Properties=species:S:1:pos:R:3 energy=-4305.170793189098 smiles=CCCC name=tbu config_type=start_0 pbc="F F F"
C        0.04225698       0.05777715      -0.43246381
C        0.45456453       1.34851320       0.26171788
C       -1.45810855      -0.24800921      -0.19800013
C        0.91809349      -1.10870044      -0.02297764
H        0.18160169       0.21791319      -1.52107528
H       -0.15661961       2.22169461      -0.02887943
H        1.51781941       1.59819324       0.07771797
H        0.31665855       1.27856867       1.36673481
H       -1.66088634      -0.38458037       0.86019816
H       -2.08157046       0.62229831      -0.54900249
H       -1.76255928      -1.14933361      -0.74520160
H        0.79115340      -1.30662745       1.07044523
H        1.98476052      -0.93266002      -0.21525300
H        0.61950568      -2.02605445      -0.54377510
14
Properties=species:S:1:pos:R:3 energy=-4305.170793189098 smiles=CCCC name=tbu config_type=start_1 pbc="F F F"
C        0.03342607       0.06434538      -0.41610161
C        0.45874844       1.37334524       0.27902674
C       -1.43750828      -0.24008286      -0.20926555
C        0.90038910      -1.12526666      -0.01676574
H        0.19081482       0.21935560      -1.51781433
H       -0.14484666       2.22991864      -0.05510616
H        1.49975498       1.61357839       0.07889903
H        0.34330551       1.27168283       1.36980918
H       -1.65876756      -0.38881529       0.87234039
H       -2.09781840       0.60573015      -0.55053864
H       -1.77450768      -1.15117168      -0.74210932
H        0.77115289      -1.31601871       1.08458839
H        1.98633387      -0.92117686      -0.22877602
H        0.64359249      -2.02762439      -0.56289751
14
Properties=species:S:1:pos:R:3 energy=-4305.170793189098 smiles=CCCC name=tbu config_type=start_2 pbc="F F F"
C        0.04018392       0.06869631      -0.44722037
C        0.44608452       1.35179742       0.27379092
C       -1.44790774      -0.22544664      -0.19675461
C        0.89409010      -1.11211906      -0.02797601
H        0.18433421       0.22495748      -1.53315567
H       -0.16823814       2.22263956      -0.05350426
H        1.50184119       1.60454724       0.07705860
H        0.31882274       1.26346622       1.35562153
H       -1.65953844      -0.38772778       0.85928384
H       -2.09609835       0.59134297      -0.55142285
H       -1.77886222      -1.14621773      -0.75285831
H        0.80262301      -1.31814028       1.07711433
H        1.97381482      -0.92230148      -0.21956680
H        0.61820370      -2.02280401      -0.55159308
14
Properties=species:S:1:pos:R:3 energy=-4305.170793189098 smiles=CCCC name=tbu config_type=start_3 pbc="F F F"
C        0.02434513       0.07785232      -0.42089381
C        0.46060370       1.34034700       0.27204407
C       -1.46793618      -0.23368345      -0.21978310
C        0.91999295      -1.11220332      -0.01441632
H        0.18342580       0.23946805      -1.51403648
H       -0.15605267       2.22051387      -0.06007955
H        1.50965406       1.60471147       0.06491713
H        0.30977234       1.26571693       1.36081497
H       -1.66101453      -0.38894667       0.87104797
H       -2.09531348       0.59341579      -0.52861484
H       -1.78424751      -1.12507434      -0.74503235
H        0.80672051      -1.30015954       1.07559549
H        1.98858920      -0.92318472      -0.21718668
H        0.62211741      -2.04516304      -0.57219200
14
Properties=species:S:1:pos:R:3 energy=-4305.170793189098 smiles=CCCC name=tbu config_type=start_4 pbc="F F F"
C        0.01876076       0.06373253      -0.43060411
C        0.44544008       1.37639662       0.25959171
C       -1.46677093      -0.23685276      -0.22220404
C        0.89864644      -1.12262820      -0.01899044
H        0.16926922       0.20745073      -1.52800617
H       -0.16919509       2.23088630      -0.06288652
H        1.51374974       1.59912474       0.07903100
H        0.32860381       1.27778899       1.37789380
H       -1.67381753      -0.40572332       0.87804139
H       -2.09634294       0.61834157      -0.54051460
H       -1.76136710      -1.15408018      -0.75003883
H        0.78963519      -1.29018563       1.09077961
H        2.00053361      -0.92136591      -0.21590372
H        0.64839028      -2.04603801      -0.55623417
14
Properties=species:S:1:pos:R:3 energy=-4305.170793189098 smiles=CCCC name=tbu config_type=start_5 pbc="F F F"
C        0.04565189       0.06980115      -0.45499501
C        0.44950731       1.36781149       0.25921582
C       -1.47213022      -0.22791552      -0.21710169
C        0.92506931      -1.11012713       0.00214468
H        0.18722959       0.23391382      -1.53130586
H       -0.16762596       2.24018470      -0.04294116
H        1.51808244       1.59262759       0.08633386
H        0.32811818       1.26121230       1.37841648
H       -1.65457896      -0.40755409       0.88151582
H       -2.09899761       0.61464214      -0.53986802
H       -1.77996409      -1.14115223      -0.74779400
H        0.80961144      -1.30028335       1.07230952
H        1.97888326      -0.90539321      -0.21232959
H        0.63499421      -2.03816985      -0.53842022
14
Properties=species:S:1:pos:R:3 energy=-4305.170793189098 smiles=CCCC name=tbu config_type=start_6 pbc="F F F"
C        0.02510374       0.06995096      -0.43323809
C        0.46096565       1.36997718       0.27504808
C       -1.46851499      -0.24302991      -0.21456216
C        0.91874394      -1.11757039      -0.01068864
H        0.17406337       0.23433076      -1.53956793
H       -0.14625498       2.21788014      -0.06244272
H        1.51754741       1.59313557       0.08219365
H        0.35184661       1.27218875       1.37072304
H       -1.64855115      -0.40042567       0.87198245
H       -2.09010580       0.60420248      -0.54338502
H       -1.77630585      -1.14993896      -0.75004839
H        0.80640829      -1.31989343       1.07578444
H        1.97846350      -0.92251466      -0.22974018
H        0.63574159      -2.03124690      -0.54353446
14
Properties=species:S:1:pos:R:3 energy=-4305.170793189098 smiles=CCCC name=tbu config_type=start_7 pbc="F F F"
C        0.03001795       0.07111110      -0.43849621
C        0.45605516       1.34598173       0.25757998
C       -1.44979190      -0.22123839      -0.20479130
C        0.91500084      -1.10060139      -0.00350829
H        0.18529306       0.23968352      -1.51930860
H       -0.15451506       2.22151242      -0.04865300
H        1.51424089       1.59749883       0.07469926
H        0.33538384       1.27746163       1.38732865
H       -1.66527981      -0.39874673       0.86074789
H       -2.09125551       0.59226038      -0.54165079
H       -1.77878716      -1.14510478      -0.75812755
H        0.82014700      -1.32053479       1.07008319
H        1.97733572      -0.92192707      -0.21134449
H        0.64644605      -2.03615299      -0.53745691
14
Properties=species:S:1:pos:R:3 energy=-4305.170793189098 smiles=CCCC name=tbu config_type=start_8 pbc="F F F"
C        0.02186821       0.07102106      -0.45234219
C        0.45974254       1.35934934       0.28123526
C       -1.46097409      -0.23303678      -0.20346353
C        0.92139632      -1.10324228      -0.01821046
H        0.18636324       0.21276678      -1.52309067
H       -0.16716871       2.20608104      -0.06303682
H        1.52699925       1.59741492       0.06377353
H        0.32717362       1.25665713       1.36168346
H       -1.65259536      -0.39738791       0.87352999
H       -2.09920526       0.58471301      -0.54953664
H       -1.78619109      -1.12536045      -0.75167866
H        0.82512577      -1.31623644       1.07525954
H        1.97155832      -0.93610357      -0.19889783
H        0.62593335      -2.03499751      -0.54968653
14
Properties=species:S:1:pos:R:3 energy=-4305.170793189098 smiles=CCCC name=tbu config_type=start_9 pbc="F F F"
C        0.02057520       0.07028302      -0.46100417
C        0.46627615       1.35570993       0.26998591
C       -1.46657275      -0.24390596      -0.19905583
C        0.91922316      -1.10248146      -0.01818401
H        0.17693186       0.23402550      -1.53035048
H       -0.15227101       2.21101786      -0.07034754
H        1.50700248       1.60278598       0.07785206
H        0.32334186       1.28245769       1.36766340
H       -1.66376531      -0.40936960       0.86171172
H       -2.08816711       0.60327102      -0.55713740
H       -1.76044275      -1.12770073      -0.74113264
H        0.79436102      -1.30947386       1.07597720
H        1.97423996      -0.90898694      -0.22186538
H        0.60949585      -2.04450676      -0.55656356
14
Properties=species:S:1:pos:R:3 energy=-4305.170793189098 smiles=CCCC name=tbu config_type=start_10 pbc="F F F"
C        0.03333763       0.06616178      -0.44291855
C        0.46243447       1.37172806       0.27951720
C       -1.46425170      -0.22835000      -0.20779810
C        0.90381886      -1.10135138      -0.02149565
H        0.17783117       0.21325730      -1.51900047
H       -0.15316254       2.21734463      -0.06410656
H        1.51508732       1.59555230       0.07928360
H        0.31011557       1.24802396       1.39146731
H       -1.65265794      -0.40103507       0.86945619
H       -2.08015664       0.62026215      -0.53243334
H       -1.76165518      -1.14113400      -0.75648234
H        0.81088711      -1.30638967       1.07314231
H        1.99239493      -0.90191856      -0.22103095
H        0.62888773      -2.05668705      -0.56809399
14
Properties=species:S:1:pos:R:3 energy=-4305.170793189098 smiles=CCCC name=tbu config_type=start_11 pbc="F F F"
C        0.02963693       0.07953005      -0.43868003
C        0.44090907       1.36646242       0.26234327
C       -1.44759439      -0.23935917      -0.20979667
C        0.90061909      -1.12524914      -0.02171918
H        0.17645014       0.22691364      -1.52156667
H       -0.16051897       2.22218988      -0.04739551
H        1.49154204       1.61561210       0.06981833
H        0.33543432       1.24997957       1.35821128
H       -1.66347606      -0.40703805       0.88460977
H       -2.09328385       0.61184064      -0.54894869
H       -1.76853474      -1.13537818      -0.74191019
H        0.81672666      -1.30745684       1.06876455
H        1.97608342      -0.91976221      -0.20908168
H        0.63002268      -2.03032409      -0.55237704
14
Properties=species:S:1:pos:R:3 energy=-4305.170793189098 smiles=CCCC name=tbu config_type=start_12 pbc="F F F"
C        0.03078990       0.06198119      -0.44758562
C        0.45029687       1.37846615       0.29105317
C       -1.46033646      -0.22051403      -0.22830865
C        0.90567188      -1.10617970      -0.02106119
H        0.18403796       0.23174634      -1.53243803
H       -0.16979323       2.22118199      -0.05595136
H        1.51507473       1.60286080       0.07297930
H        0.35121369       1.26436671       1.35711196
H       -1.66587041      -0.38326116       0.87200411
H       -2.09232535       0.59732172      -0.53159165
H       -1.76297822      -1.13798625      -0.75319061
H        0.81926891      -1.30699317       1.07578133
H        1.97760881      -0.91149934      -0.21730322
H        0.63008212      -2.03367892      -0.55698464
14
Properties=species:S:1:pos:R:3 energy=-4305.170793189098 smiles=CCCC name=tbu config_type=start_13 pbc="F F F"
C        0.03114312       0.05867532      -0.42539193
C        0.44064017       1.35010974       0.26632087
C       -1.44740928      -0.22847489      -0.20232649
C        0.91872319      -1.11731877      -0.02505264
H        0.18076985       0.22905771      -1.51768794
H       -0.16221444       2.20732787      -0.06882690
H        1.49978583       1.58859125       0.07614848
H        0.31252669       1.25522254       1.35694446
H       -1.65476615      -0.38232828       0.85683100
H       -2.09174011       0.59365433      -0.54951729
H       -1.78068225      -1.13168079      -0.73241145
H        0.80441703      -1.30677595       1.07023061
H        1.96694849      -0.91646922      -0.21900154
H        0.62732618      -2.02192160      -0.54959606
14
Properties=species:S:1:pos:R:3 energy=-4305.170793189098 smiles=CCCC name=tbu config_type=start_14 pbc="F F F"
C        0.05030611       0.07442457      -0.43030180
C        0.45244300       1.37091850       0.28755865
C       -1.46116019      -0.23972445      -0.20722188
C        0.90944966      -1.11182411      -0.00981873
H        0.17921207       0.21945398      -1.54001986
H       -0.14612345       2.21222324      -0.07169071
H        1.52128569       1.59469445       0.07875839
H        0.34391319       1.26034395       1.38612435
H       -1.65715248      -0.39269812       0.86979936
H       -2.10467052       0.60333600      -0.54465892
H       -1.76975565      -1.15386470      -0.76684569
H        0.80608927      -1.30704420       1.08467958
H        1.97634990      -0.92402948      -0.22945739
H        0.64756873      -2.03511300      -0.55046765
14
Properties=species:S:1:pos:R:3 energy=-4305.170793189098 smiles=CCCC name=tbu config_type=start_15 pbc="F F F"
C        0.04437458       0.04773629      -0.43979404
C        0.44774149       1.36869758       0.27945326
C       -1.46236573      -0.23276117      -0.19006401
C        0.90479824      -1.10104642      -0.00417476
H        0.16282069       0.22788363      -1.52996847
H       -0.18202459       2.19588082      -0.06897671
H        1.50183165       1.61562677       0.07438436
H        0.32839098       1.26833751       1.36187608
H       -1.66524860      -0.40598893       0.86656709
H       -2.09256691       0.59919521      -0.52855958
H       -1.76751357      -1.15976117      -0.74677157
H        0.80268739      -1.31523982       1.07204115
H        1.96824401      -0.93349849      -0.21079078
H        0.61396397      -2.04247542      -0.55293053
14
Properties=species:S:1:pos:R:3 energy=-4305.170793189098 smiles=CCCC name=tbu config_type=start_16 pbc="F F F"
C        0.04544744       0.07026292      -0.45950293
C        0.45714654       1.35368233       0.28355153
C       -1.46341685      -0.24479850      -0.19590551
C        0.91751919      -1.10792026      -0.01692705
H        0.16598030       0.23826992      -1.53854512
H       -0.15733904       2.22707654      -0.05307637
H        1.50603246       1.60446458       0.06336478
H        0.33106796       1.25073425       1.36874289
H       -1.65782619      -0.40175317       0.86627142
H       -2.08967956       0.60004924      -0.54431755
H       -1.77994462      -1.14817087      -0.75207136
H        0.81898503      -1.31075294       1.07752496
H        1.98704138      -0.90629070      -0.20609094
H        0.63202458      -2.03251056      -0.55280487
14
Properties=species:S:1:pos:R:3 energy=-4305.170793189098 smiles=CCCC name=tbu config_type=start_17 pbc="F F F"
C        0.01186854       0.05773514      -0.44180701
C        0.46374276       1.37786751       0.27788057
C       -1.44637766      -0.23473583      -0.23154525
C        0.89374157      -1.11743387      -0.01866292
H        0.19074379       0.22209433      -1.52074217
H       -0.16054996       2.23032479      -0.05377135
H        1.50622148       1.60368809       0.05944796
H        0.33061917       1.27246020       1.37184037
H       -1.65895532      -0.39801451       0.87854568
H       -2.08926023       0.60233738      -0.54206686
H       -1.78294919      -1.14757488      -0.75389129
H        0.78989697      -1.31340265       1.06482057
H        1.97827274      -0.91341608      -0.22688999
H        0.63671197      -2.05700139      -0.56115221
14
Properties=species:S:1:pos:R:3 energy=-4305.170793189098 smiles=CCCC name=tbu config_type=start_18 pbc="F F F"
C        0.03779291       0.08333092      -0.42876695
C        0.46143357       1.36268511       0.27693276
C       -1.44730602      -0.23166430      -0.20218553
C        0.90880762      -1.13264349      -0.02032580
H        0.18802808       0.23701660      -1.51573646
H       -0.14797649       2.20033922      -0.03807875
H        1.50848756       1.59623086       0.06735365
H        0.30632897       1.28162025       1.36092496
H       -1.67955352      -0.39086941       0.87086122
H       -2.11125159       0.59079729      -0.56315314
H       -1.77216614      -1.13675685      -0.74965063
H        0.79543418      -1.30340815       1.07727155
H        1.96941429      -0.92503844      -0.21476746
H        0.63070948      -2.03480157      -0.54330569
14
Properties=species:S:1:pos:R:3 energy=-4305.170793189098 smiles=CCCC name=tbu config_type=start_19 pbc="F F F"
C        0.01418641       0.07246275      -0.44539005
C        0.44721085       1.36901447       0.26792760
C       -1.44915988      -0.24130978      -0.21695803
C        0.90575537      -1.10663301      -0.01193213
H        0.17636736       0.23080720      -1.54345262
H       -0.15112103       2.21273536      -0.05151240
H        1.49716579       1.59417396       0.07037332
H        0.34605500       1.26888841       1.37352371
H       -1.66358572      -0.38400303       0.87727922
H       -2.10091924       0.60370403      -0.55485757
H       -1.76409951      -1.13777627      -0.75187798
H        0.80499218      -1.30768698       1.05945209
H        1.97880175      -0.91347476      -0.22008732
H        0.60485880      -2.04139091      -0.55172362
14
Properties=species:S:1:pos:R:3 energy=-4305.170793189098 smiles=CCCC name=tbu config_type=start_20 pbc="F F F"
C        0.02387819       0.08273851      -0.43463350
C        0.45058467       1.35866296       0.26669761
C       -1.46422695      -0.23687286      -0.21738957
C        0.91236942      -1.11589642      -0.02416371
H        0.16717776       0.23035971      -1.53741190
H       -0.14623667       2.20894405      -0.05705408
H        1.51963594       1.59199921       0.06147117
H        0.33868820       1.26640245       1.37475030
H       -1.67508916      -0.39578134       0.84330873
H       -2.08870953       0.60399593      -0.53401037
H       -1.77369438      -1.13181571      -0.74151425
H        0.80651122      -1.30103880       1.06072133
H        1.98537346      -0.92319427      -0.22332199
H        0.65014984      -2.02518762      -0.55422284
14
Properties=species:S:1:pos:R:3 energy=-4305.170793189098 smiles=CCCC name=tbu config_type=start_21 pbc="F F F"
C        0.04754526       0.05953011      -0.44977949
C        0.44985123       1.36031641       0.28513718
C       -1.46989687      -0.22537469      -0.21890517
C        0.89868586      -1.10754697      -0.01211545
H        0.19413258       0.22283645      -1.53527647
H       -0.14838232       2.22664678      -0.06150677
H        1.51675964       1.59956803       0.09763015
H        0.30821832       1.24937169       1.37113911
H       -1.65098355      -0.39552196       0.87084616
H       -2.09202546       0.58942845      -0.54036731
H       -1.78062426      -1.14065088      -0.74226953
H        0.80512610      -1.30464250       1.07092913
H        1.97084375      -0.91562422      -0.21131085
H        0.62567551      -2.03131118      -0.55770736
14
Properties=species:S:1:pos:R:3 energy=-4305.170793189098 smiles=CCCC name=tbu config_type=start_22 pbc="F F F"
C        0.04536237       0.09162341      -0.43011300
C        0.46036407       1.36173865       0.26150956
C       -1.44487745      -0.21902546      -0.21380757
C        0.91070581      -1.13380943      -0.01658648
H        0.17484686       0.23036186      -1.52024002
H       -0.15895819       2.20667271      -0.06519138
H        1.52454420       1.61016710       0.07433703
H        0.32428722       1.27036279       1.36662498
H       -1.65330571      -0.38074365       0.86707123
H       -2.10310017       0.59282109      -0.56096537
H       -1.79004663      -1.15083359      -0.73919078
H        0.80249148      -1.30715865       1.07385638
H        1.98193759      -0.90176052      -0.21276795
H        0.59112081      -2.01845694      -0.56335833
14
Properties=species:S:1:pos:R:3 energy=-4305.170793189098 smiles=CCCC name=tbu config_type=start_23 pbc="F F F"
C        0.04039285       0.05105334      -0.45540207
C        0.45785632       1.36284346       0.27269583
C       -1.44655714      -0.24411421      -0.19413453
C        0.90207682      -1.11644573      -0.02272925
H        0.16484819       0.21729837      -1.51894266
H       -0.13631277       2.23063310      -0.06631798
H        1.50749579       1.61937834       0.08088999
H        0.31783146       1.26371038       1.37756831
H       -1.65352435      -0.40747622       0.85982888
H       -2.11202638       0.60003216      -0.53982244
H       -1.76844328      -1.14214387      -0.75269141
H        0.80395205      -1.30614706       1.05679619
H        1.98426687      -0.91298902      -0.22012245
H        0.64112736      -2.03154575      -0.54261368
14
Properties=species:S:1:pos:R:3 energy=-4305.170793189098 smiles=CCCC name=tbu config_type=start_24 pbc="F F F"
C        0.03788335       0.08712095      -0.46777618
C        0.45391036       1.36076530       0.29000744
C       -1.46246861      -0.23431643      -0.20650703
C        0.91843151      -1.12602870      -0.00784882
H        0.19763909       0.20911135      -1.50877088
H       -0.16559860       2.22180595      -0.07297942
H        1.50798267       1.60572681       0.09016691
H        0.31191704       1.27471575       1.36360079
H       -1.65344456      -0.39455507       0.86438032
H       -2.08693300       0.60071797      -0.55544017
H       -1.78019604      -1.14897271      -0.74504866
H        0.80449738      -1.31040884       1.05594020
H        1.97822677      -0.90855649      -0.22567558
H        0.63477896      -2.02707214      -0.55012094
