14
Properties=species:S:1:pos:R:3 energy=-4305.138647313924 name=nbu_straight smiles=CCCC config_type=start_0 pbc="F F F"
C       -1.88140588      -0.17471229      -0.16627076
C       -0.63451811      -0.22209963       0.69593853
C        0.66859326       0.11033551      -0.04745243
C        1.91230159       0.05516677       0.81140708
H       -2.81179755      -0.41728813       0.40722380
H       -2.04874238       0.81647051      -0.63050999
H       -1.81668516      -0.92355186      -1.00658597
H       -0.77017377       0.49124231       1.54418188
H       -0.55381975      -1.20055789       1.17469901
H        0.77037905      -0.60404052      -0.89234380
H        0.54975860       1.11316921      -0.52802027
H        1.84217498       0.78198389       1.63239261
H        2.04270828      -0.93003758       1.28571234
H        2.83800687       0.29486559       0.24614431
14
Properties=species:S:1:pos:R:3 energy=-4305.138647313924 name=nbu_straight smiles=CCCC config_type=start_1 pbc="F F F"
C       -1.87780202      -0.18985285      -0.16931581
C       -0.63523347      -0.22737380       0.68871488
C        0.64970045       0.08225579      -0.05224013
C        1.91357649       0.06431756       0.80689336
H       -2.79652631      -0.41501281       0.41011972
H       -2.02680061       0.82153661      -0.60500543
H       -1.81590059      -0.91404076      -1.00457603
H       -0.75854645       0.52091367       1.53356981
H       -0.54795934      -1.20769237       1.16318116
H        0.77744954      -0.60107969      -0.89783549
H        0.57007372       1.09117839      -0.52829360
H        1.82696140       0.79785155       1.64207423
H        2.04851852      -0.95677202       1.26848500
H        2.80466068       0.30266755       0.24525590
14
Properties=species:S:1:pos:R:3 energy=-4305.138647313924 name=nbu_straight smiles=CCCC config_type=start_2 pbc="F F F"
C       -1.88663293      -0.18328462      -0.15295361
C       -0.63104956      -0.20254176       0.70602374
C        0.67030072       0.09018214      -0.06350555
C        1.89587210       0.04775134       0.81310526
H       -2.78731318      -0.41357040       0.41338067
H       -2.01502766       0.82976064      -0.63123216
H       -1.83396502      -0.89865561      -1.00339497
H       -0.73189949       0.51402783       1.53664418
H       -0.54584056      -1.21192729       1.17532339
H        0.76120160      -0.61764785      -0.89937164
H        0.55812532       1.08934032      -0.52520132
H        1.80696089       0.78846029       1.65621739
H        2.05009187      -0.94528886       1.25496198
H        2.82874749       0.30109761       0.22613349
14
Properties=species:S:1:pos:R:3 energy=-4305.138647313924 name=nbu_straight smiles=CCCC config_type=start_3 pbc="F F F"
C       -1.87987508      -0.17893369      -0.18407237
C       -0.64371348      -0.22408958       0.70078792
C        0.65990126       0.10481836      -0.05099461
C        1.88957310       0.06089894       0.80189499
H       -2.79379379      -0.40796852       0.39803933
H       -2.03841914       0.82248156      -0.62963026
H       -1.83187881      -0.90768676      -1.00523540
H       -0.75638226       0.50581122       1.52245653
H       -0.54661144      -1.21083978       1.16226684
H        0.76292165      -0.63203503      -0.90025585
H        0.55377078       1.09429427      -0.53595031
H        1.83843101       0.78633872       1.64874333
H        2.03757282      -0.94641348       1.26417120
H        2.80335870       0.30591799       0.23743792
14
Properties=species:S:1:pos:R:3 energy=-4305.138647313924 name=nbu_straight smiles=CCCC config_type=start_4 pbc="F F F"
C       -1.89571387      -0.16977768      -0.15774581
C       -0.62919430      -0.23554000       0.69904107
C        0.63987282       0.09658155      -0.07402310
C        1.91547595       0.06081468       0.81545468
H       -2.79470220      -0.39345795       0.41715852
H       -2.02623367       0.82035587      -0.63620555
H       -1.82406594      -0.90752253      -1.01737687
H       -0.76543266       0.50806193       1.52764997
H       -0.54808753      -1.21205867       1.17403097
H        0.76370652      -0.62996221      -0.87744784
H        0.54838549       1.11543766      -0.52812435
H        1.84252851       0.80431946       1.64722449
H        2.05234720      -0.94729672       1.26655132
H        2.80727241       0.28355896       0.21683900
14
Properties=species:S:1:pos:R:3 energy=-4305.138647313924 name=nbu_straight smiles=CCCC config_type=start_5 pbc="F F F"
C       -1.90129824      -0.18389747      -0.16745611
C       -0.64435792      -0.19949038       0.68658871
C        0.64103807       0.09341224      -0.07644404
C        1.89412944       0.05038980       0.81088056
H       -2.80885878      -0.42547527       0.40318883
H       -2.03937609       0.83072830      -0.63901252
H       -1.81997026      -0.91310926      -1.00326300
H       -0.74660119       0.52013399       1.54472880
H       -0.56089053      -1.22883532       1.18102439
H        0.76267706      -0.60503643      -0.88934760
H        0.57126590       1.08643182      -0.53313083
H        1.82544319       0.81429337       1.66240861
H        2.06429161      -0.94547791       1.26783428
H        2.83354528       0.28268399       0.23279683
14
Properties=species:S:1:pos:R:3 energy=-4305.138647313924 name=nbu_straight smiles=CCCC config_type=start_6 pbc="F F F"
C       -1.87440711      -0.17782885      -0.19184701
C       -0.64029069      -0.20807551       0.68621282
C        0.63567878       0.10234948      -0.07134169
C        1.92055231       0.06289087       0.83201568
H       -2.79089841      -0.39901218       0.39988914
H       -2.03780696       0.84002670      -0.61906716
H       -1.81563756      -0.91960641      -0.99596014
H       -0.74708682       0.50355730       1.54525148
H       -0.54165196      -1.23066609       1.18449882
H        0.76002239      -0.60873586      -0.88870102
H        0.55266891       1.09935977      -0.53088600
H        1.84541944       0.80419565       1.64393852
H        2.04264126      -0.92950521       1.27140841
H        2.82014921       0.29055215       0.25061078
14
Properties=species:S:1:pos:R:3 energy=-4305.138647313924 name=nbu_straight smiles=CCCC config_type=start_7 pbc="F F F"
C       -1.89495526      -0.17767904      -0.17009009
C       -0.62883235      -0.20590982       0.70204508
C        0.63929401       0.08723509      -0.06880216
C        1.91422694       0.05544761       0.81918236
H       -2.80406463      -0.39859524       0.39162707
H       -2.01643598       0.81772214      -0.63856872
H       -1.81617259      -0.91909843      -1.00010035
H       -0.72335839       0.51453375       1.53755804
H       -0.53562415      -1.22353767       1.17496545
H        0.76891420      -0.61917552      -0.89221802
H        0.55632715       1.09057304      -0.53314039
H        1.84221629       0.78458557       1.64741344
H        2.04222150      -0.94662666       1.25399782
H        2.82089659       0.29747510       0.24549654
14
Properties=species:S:1:pos:R:3 energy=-4305.138647313924 name=nbu_straight smiles=CCCC config_type=start_8 pbc="F F F"
C       -1.89004105      -0.17651890      -0.17534821
C       -0.63374284      -0.22990527       0.68457698
C        0.65801710       0.10902661      -0.05903130
C        1.91048384       0.07241661       0.82636271
H       -2.79283494      -0.39324248       0.41188640
H       -2.02469606       0.82135442      -0.62477900
H       -1.81947911      -0.91473517      -1.00759474
H       -0.73982116       0.51980663       1.55416365
H       -0.55235281      -1.22185873       1.16373089
H        0.76776449      -0.63111762      -0.89048379
H        0.55384584       1.09540722      -0.54121955
H        1.85595500       0.78394421       1.64171219
H        2.04109372      -0.94603907       1.27239351
H        2.83160105       0.29256901       0.25157409
14
Properties=species:S:1:pos:R:3 energy=-4305.138647313924 name=nbu_straight smiles=CCCC config_type=start_9 pbc="F F F"
C       -1.89819079      -0.17660894      -0.18919419
C       -0.63005546      -0.21653766       0.70823226
C        0.64683491       0.09722822      -0.05770353
C        1.91687932       0.06977572       0.81166054
H       -2.79176476      -0.42015922       0.40810433
H       -2.03734971       0.80592304      -0.63916282
H       -1.80672075      -0.91481908      -1.01852047
H       -0.74803138       0.49900213       1.52851846
H       -0.53966836      -1.22049991       1.17651299
H        0.75981474      -0.63866499      -0.89836964
H        0.54644191       1.11515155      -0.53477066
H        1.86093377       0.78824256       1.64688854
H        2.03531632      -0.96021557       1.28484017
H        2.81108835       0.29372449       0.23934447
14
Properties=species:S:1:pos:R:3 energy=-4305.138647313924 name=nbu_straight smiles=CCCC config_type=start_10 pbc="F F F"
C       -1.89948380      -0.17734698      -0.19785617
C       -0.62352185      -0.22017707       0.69698291
C        0.64123625       0.08635904      -0.05329583
C        1.91470616       0.07053654       0.81168699
H       -2.80119614      -0.39890050       0.40084452
H       -2.02245201       0.81085986      -0.64647354
H       -1.82671752      -0.90944802      -1.00444194
H       -0.75186314       0.52480269       1.53449840
H       -0.55083831      -1.23248160       1.16469472
H        0.77085289      -0.62010698      -0.90597040
H        0.57219025       1.11281127      -0.52422464
H        1.83016902       0.79500514       1.64760620
H        2.03799796      -0.93309894       1.26187262
H        2.79465085       0.28421524       0.23246744
14
Properties=species:S:1:pos:R:3 energy=-4305.138647313924 name=nbu_straight smiles=CCCC config_type=start_11 pbc="F F F"
C       -1.88672137      -0.18146822      -0.17977055
C       -0.62736353      -0.20415894       0.70651420
C        0.64355730       0.10191500      -0.06203810
C        1.89930186       0.07166662       0.80837535
H       -2.80029683      -0.41966870       0.41219453
H       -2.02334354       0.81718663      -0.64023256
H       -1.81863268      -0.91668170      -1.00301040
H       -0.76508943       0.49036896       1.55830231
H       -0.53973094      -1.22414707       1.17243919
H        0.77886336      -0.60311585      -0.88126634
H        0.57097782       1.09937800      -0.53957434
H        1.84669511       0.79808933       1.64477131
H        2.05615293      -0.92603056       1.26270705
H        2.81404273       0.27203495       0.22093701
14
Properties=species:S:1:pos:R:3 energy=-4305.138647313924 name=nbu_straight smiles=CCCC config_type=start_12 pbc="F F F"
C       -1.89042207      -0.16809995      -0.17553203
C       -0.64888893      -0.20942458       0.68934027
C        0.66021461       0.09090583      -0.06403667
C        1.89610209       0.04776886       0.80815182
H       -2.80167786      -0.40601236       0.40962833
H       -2.03069997       0.82203188      -0.62352151
H       -1.84217796      -0.89662190      -1.01247567
H       -0.73977068       0.49232457       1.52504628
H       -0.55054906      -1.23015005       1.18759277
H        0.76573615      -0.61153736      -0.89778169
H        0.56409826       1.10513382      -0.52500219
H        1.85253466       0.79702216       1.64039355
H        2.03984142      -0.94387421       1.27465632
H        2.81517768       0.29839791       0.23665396
14
Properties=species:S:1:pos:R:3 energy=-4305.138647313924 name=nbu_straight smiles=CCCC config_type=start_13 pbc="F F F"
C       -1.88926910      -0.18564881      -0.18443762
C       -0.63950113      -0.19742085       0.71805017
C        0.64747254       0.10975097      -0.08254865
C        1.90115488       0.06683830       0.80880981
H       -2.79409004      -0.40117966       0.39875697
H       -2.03997423       0.82102399      -0.63207736
H       -1.81864527      -0.90937320      -1.00931470
H       -0.72399131       0.50671171       1.52394696
H       -0.55294341      -1.20637316       1.17498711
H        0.76669465      -0.62605628      -0.88042465
H        0.56965478       1.10252575      -0.53628261
H        1.85507691       0.79748583       1.64741033
H        2.04136681      -0.93561134       1.26643478
H        2.81523712       0.29504308       0.23204636
14
Properties=species:S:1:pos:R:3 energy=-4305.138647313924 name=nbu_straight smiles=CCCC config_type=start_14 pbc="F F F"
C       -1.88891588      -0.18895468      -0.16224393
C       -0.64915783      -0.22577726       0.69331787
C        0.66039972       0.10179011      -0.05656649
C        1.91420619       0.05569923       0.80481836
H       -2.79735815      -0.40386829       0.41350706
H       -2.03239544       0.80716987      -0.64495290
H       -1.83393417      -0.92364275      -1.00614552
H       -0.76267831       0.49756754       1.52377946
H       -0.54183915      -1.20544028       1.15981400
H        0.76727989      -0.62972367      -0.89835029
H        0.55195075       1.10883121      -0.51550345
H        1.84022503       0.79770305       1.64185961
H        2.03070649      -0.94058122       1.26473646
H        2.81248118       0.30680040       0.23943494
14
Properties=species:S:1:pos:R:3 energy=-4305.138647313924 name=nbu_straight smiles=CCCC config_type=start_15 pbc="F F F"
C       -1.86975289      -0.17320543      -0.16715380
C       -0.63735500      -0.20496850       0.71455565
C        0.64664881       0.09054055      -0.06146188
C        1.90493266       0.06119389       0.82005227
H       -2.79891593      -0.41347202       0.39117514
H       -2.01630445       0.81206524      -0.64781671
H       -1.81243431      -0.91753955      -1.00353561
H       -0.73129181       0.50268895       1.55295935
H       -0.54422548      -1.21581012       1.17278236
H        0.75434948      -0.62004200      -0.89349192
H        0.56287735       1.08664730      -0.54993769
H        1.84189727       0.79743480       1.65630858
H        2.04010790      -0.94814148       1.25428061
H        2.83272373       0.29360900       0.23856335
14
Properties=species:S:1:pos:R:3 energy=-4305.138647313924 name=nbu_straight smiles=CCCC config_type=start_16 pbc="F F F"
C       -1.87568442      -0.19989371      -0.17664604
C       -0.64205651      -0.20718942       0.70645026
C        0.64544327       0.09750383      -0.04430401
C        1.90028124       0.07197158       0.82569624
H       -2.81530731      -0.40504237       0.40122653
H       -2.05220559       0.79572282      -0.64510271
H       -1.83188835      -0.89660723      -1.00790964
H       -0.74681402       0.51068251       1.52871108
H       -0.55232160      -1.22910093       1.16955009
H        0.76645309      -0.62418279      -0.87739258
H        0.56511943       1.08075083      -0.52986357
H        1.83849539       0.78923918       1.64367015
H        2.03200201      -0.95761049       1.27294722
H        2.79911897       0.28624658       0.23610047
14
Properties=species:S:1:pos:R:3 energy=-4305.138647313924 name=nbu_straight smiles=CCCC config_type=start_17 pbc="F F F"
C       -1.87461156      -0.17736708      -0.19635493
C       -0.63265146      -0.22220467       0.71054853
C        0.64439215       0.08546650      -0.05014551
C        1.91300219       0.06509774       0.81294395
H       -2.81214770      -0.39465608       0.39264988
H       -2.02752004       0.82691854      -0.62920237
H       -1.82768754      -0.90776942      -1.01892922
H       -0.74413704       0.49307925       1.53557789
H       -0.54489919      -1.22486517       1.16925442
H        0.76934044      -0.62332876      -0.89315055
H        0.55268838       1.09234113      -0.53516336
H        1.85479303       0.79372606       1.64915396
H        2.05079938      -0.93040270       1.27764706
H        2.81717958       0.29621144       0.23622613
14
Properties=species:S:1:pos:R:3 energy=-4305.138647313924 name=nbu_straight smiles=CCCC config_type=start_18 pbc="F F F"
C       -1.90819046      -0.18989486      -0.17865901
C       -0.62605524      -0.19801949       0.70487757
C        0.66143134       0.09552917      -0.08578525
C        1.88922457       0.05558413       0.81120808
H       -2.78738421      -0.41083167       0.41045283
H       -2.03073096       0.83016679      -0.62989735
H       -1.82749852      -0.90854591      -1.02284604
H       -0.74458583       0.51480520       1.53867537
H       -0.54602832      -1.22112651       1.18152868
H        0.76975977      -0.62104062      -0.89089986
H        0.54968381       1.09293712      -0.53698329
H        1.82570497       0.79107635       1.63644957
H        2.04203074      -0.93752808       1.25684801
H        2.82186697       0.27172061       0.22787879
14
Properties=species:S:1:pos:R:3 energy=-4305.138647313924 name=nbu_straight smiles=CCCC config_type=start_19 pbc="F F F"
C       -1.88226609      -0.16429908      -0.16561895
C       -0.62836443      -0.21320189       0.70392976
C        0.66050298       0.09860070      -0.05642553
C        1.90429062       0.04037451       0.80954520
H       -2.79009992      -0.39590940       0.41545854
H       -2.01815749       0.80018122      -0.61420475
H       -1.82523244      -0.91600314      -1.01494035
H       -0.76887603       0.52396525       1.52775996
H       -0.56662652      -1.21398141       1.17384422
H        0.74776841      -0.63258071      -0.91198614
H        0.56046686       1.10375515      -0.53274263
H        1.83124218       0.80107085       1.64890055
H        2.03317229      -0.94915044       1.26897054
H        2.81586448       0.29392043       0.24572531
14
Properties=species:S:1:pos:R:3 energy=-4305.138647313924 name=nbu_straight smiles=CCCC config_type=start_20 pbc="F F F"
C       -1.90587259      -0.17516725      -0.18224205
C       -0.64258715      -0.20687253       0.69492460
C        0.65864912       0.08895522      -0.07119803
C        1.90123837       0.06638499       0.81793887
H       -2.80176064      -0.40211880       0.38774238
H       -2.02130203       0.81257736      -0.62763840
H       -1.83655421      -0.91806004      -1.01192068
H       -0.72915000       0.51123341       1.54035871
H       -0.55065872      -1.20711503       1.18026222
H        0.75810076      -0.61967397      -0.90369057
H        0.56853349       1.10273573      -0.53496998
H        1.84080018       0.79679202       1.63108109
H        2.04255975      -0.93758676       1.26365068
H        2.79001380       0.28733109       0.23730738
14
Properties=species:S:1:pos:R:3 energy=-4305.138647313924 name=nbu_straight smiles=CCCC config_type=start_21 pbc="F F F"
C       -1.89618081      -0.16489149      -0.17148550
C       -0.63921333      -0.21722404       0.69369461
C        0.64358205       0.09339214      -0.07162957
C        1.90785242       0.05712158       0.80570729
H       -2.81095024      -0.40256629       0.39378310
H       -2.01641767       0.80878605      -0.63318008
H       -1.81408406      -0.92023479      -1.02082283
H       -0.73651680       0.50874745       1.54158530
H       -0.56216216      -1.21889334       1.14629173
H        0.77031047      -0.61938207      -0.88284337
H        0.55893862       1.10869629      -0.52460625
H        1.84231922       0.80344020       1.63235033
H        2.04913146      -0.94730627       1.26041601
H        2.83530484       0.30353438       0.23480816
14
Properties=species:S:1:pos:R:3 energy=-4305.138647313924 name=nbu_straight smiles=CCCC config_type=start_22 pbc="F F F"
C       -1.87251374      -0.18809989      -0.18663149
C       -0.63994677      -0.21557059       0.71213418
C        0.63791213       0.10489031      -0.07314517
C        1.89416886       0.06547103       0.81775555
H       -2.78399542      -0.41008955       0.39591853
H       -2.01856332       0.82648878      -0.63763277
H       -1.81696036      -0.91266597      -0.98466385
H       -0.76698668       0.49171669       1.53797411
H       -0.53805655      -1.21863396       1.17382916
H        0.76699454      -0.63394955      -0.88920031
H        0.55200874       1.09986112      -0.52536153
H        1.84093410       0.79983650       1.64255813
H        2.03460175      -0.93973622       1.27242715
H        2.81083051       0.29741082       0.23132364
14
Properties=species:S:1:pos:R:3 energy=-4305.138647313924 name=nbu_straight smiles=CCCC config_type=start_23 pbc="F F F"
C       -1.87469663      -0.15600659      -0.16696500
C       -0.62943393      -0.21414835       0.68850656
C        0.66293155       0.11123954      -0.06804757
C        1.90618881       0.03920857       0.81328452
H       -2.80328114      -0.40256414       0.41095498
H       -2.02913919       0.80651471      -0.64131738
H       -1.80917580      -0.90206690      -1.00795697
H       -0.75091778       0.51270779       1.53345998
H       -0.54037871      -1.20385565       1.17005423
H        0.75591983      -0.63055691      -0.90979837
H        0.54258637       1.08967841      -0.52228278
H        1.83829948       0.79732035       1.64548538
H        2.04569559      -0.92587252       1.27097005
H        2.77627581       0.31026506       0.22567267
14
Properties=species:S:1:pos:R:3 energy=-4305.138647313924 name=nbu_straight smiles=CCCC config_type=start_24 pbc="F F F"
C       -1.87966615      -0.19657666      -0.19225407
C       -0.63194168      -0.21304354       0.69969283
C        0.66125186       0.08615079      -0.04837453
C        1.89755982       0.05657227       0.80714175
H       -2.81327981      -0.41562763       0.41225234
H       -2.00649377       0.83047510      -0.64244398
H       -1.82622421      -0.89285566      -1.00140401
H       -0.75737354       0.50605538       1.54440331
H       -0.54059735      -1.23058822       1.16281188
H        0.74699362      -0.62334584      -0.88865544
H        0.56418972       1.09836813      -0.53578341
H        1.83976005       0.79833194       1.62842519
H        2.04802487      -0.93710102       1.26361555
H        2.82628236       0.29717625       0.24641732
