14
Properties=species:S:1:pos:R:3 energy=-4305.138647313924 name=nbu_straight smiles=CCCC config_type=start_0 pbc="F F F"
C       -1.86206234      -0.23105320       0.07791792
C       -0.56896363      -0.07788062       0.75585436
C        0.82899520       0.01369243      -0.06515748
C        1.82157800      -0.06180260       0.78975259
H       -2.66654376      -0.44807997       0.51815571
H       -1.90519765       0.91209836      -0.60760856
H       -1.95256716      -0.78586405      -0.99736471
H       -0.57200986       0.61752633       1.54185678
H       -0.54413558      -1.17875592       1.22208192
H        0.73381096      -0.59604654      -0.90196941
H        0.53351320       1.01112424      -0.45765023
H        1.54928088       0.74897992       1.78942086
H        2.12288270      -1.00346356       1.11430078
H        2.94826288       0.38399308       0.14279795
14
Properties=species:S:1:pos:R:3 energy=-4305.138647313924 name=nbu_straight smiles=CCCC config_type=start_1 pbc="F F F"
C       -1.79448380      -0.18754386      -0.23326970
C       -0.69560281      -0.29335880       0.70349619
C        0.72500065       0.16005462       0.05995192
C        1.75858800       0.06967338       0.67764990
H       -2.73134989      -0.39206115       0.36474231
H       -2.13911237       0.83930764      -0.59158956
H       -1.93170506      -0.87617561      -1.01576902
H       -0.81683758       0.53536019       1.39998027
H       -0.55184438      -1.16788084       1.09151636
H        0.75101154      -0.73991826      -0.91081150
H        0.48996781       1.06066372      -0.56514014
H        1.86398208       0.72776418       1.71468033
H        1.99769215      -1.01470976       1.20639304
H        2.69437505       0.43219689       0.25584221
14
Properties=species:S:1:pos:R:3 energy=-4305.138647313924 name=nbu_straight smiles=CCCC config_type=start_2 pbc="F F F"
C       -1.95287169      -0.09598379       0.02999589
C       -0.55041103      -0.40786299       0.68602770
C        0.52471618       0.07768651      -0.17033299
C        2.01761646       0.06883077       0.81324681
H       -2.74043403      -0.24695553       0.55593419
H       -2.01725769       0.81805072      -0.65734246
H       -1.85357639      -0.87453326      -1.13718372
H       -0.90734163       0.55786726       1.45191466
H       -0.56660528      -1.18006967       1.20915774
H        0.75886015      -0.71919008      -0.68273139
H        0.43611487       1.27209758      -0.48688048
H        1.90495706       0.90757162       1.69949192
H        2.14543602      -1.02354218       1.23019416
H        2.73351214       0.20860661       0.04985301
14
Properties=species:S:1:pos:R:3 energy=-4305.138647313924 name=nbu_straight smiles=CCCC config_type=start_3 pbc="F F F"
C       -2.00871542      -0.23718171      -0.06710710
C       -0.70204722      -0.04736680       0.56150408
C        0.53636866       0.04599342      -0.19454245
C        1.80415144      -0.03541795       0.76750564
H       -2.88199982      -0.56712868       0.41623734
H       -2.14868194       0.92177496      -0.68541220
H       -1.81261962      -0.93040059      -0.99604504
H       -0.71902688       0.67858790       1.62270302
H       -0.69463534      -1.34783619       1.27909194
H        0.74856557      -0.46993233      -0.80172903
H        0.66491902       0.98203919      -0.53694531
H        1.73410391       1.00731067       1.85133307
H        2.26488009      -1.00535410       1.24302382
H        2.99624079       0.19985686       0.20943128
14
Properties=species:S:1:pos:R:3 energy=-4305.138647313924 name=nbu_straight smiles=CCCC config_type=start_4 pbc="F F F"
C       -1.73980408      -0.17649550      -0.31101607
C       -0.66137485      -0.13321810       0.55774525
C        0.48277580       0.13536579      -0.14351889
C        2.06838006       0.08959270       0.97885676
H       -2.70239606      -0.30249783       0.38324035
H       -2.13299060       1.01475903      -0.48595856
H       -1.76929264      -0.99537207      -0.92301645
H       -0.72388320       0.51282099       1.62792982
H       -0.50224958      -1.36614387       1.31383620
H        0.72201893      -0.50692660      -0.79526324
H        0.47894906       1.11131868      -0.51449701
H        1.93386645       0.90633353       1.66663218
H        2.04837665      -0.84562705       1.27876507
H        2.86228006       0.27853851       0.38757080
14
Properties=species:S:1:pos:R:3 energy=-4305.138647313924 name=nbu_straight smiles=CCCC config_type=start_5 pbc="F F F"
C       -1.94528559      -0.17499744      -0.09344688
C       -0.54679149      -0.11156123       0.71606782
C        0.51892815      -0.01577809      -0.11812359
C        2.00512637       0.01516006       0.85052357
H       -2.83405833      -0.29832841       0.30061970
H       -1.91928079       0.79171339      -0.68097415
H       -1.77464295      -0.99029235      -0.96441845
H       -0.48659894       0.62258549       1.55099540
H       -0.44197154      -1.29485966       1.21850245
H        0.81093698      -0.61132325      -0.83043322
H        0.51553155       1.02345138      -0.53704095
H        1.90183486       0.71023266       1.70138139
H        2.04417901      -1.01684159       1.10465919
H        2.86975388       0.34776803       0.33642838
14
Properties=species:S:1:pos:R:3 energy=-4305.138647313924 name=nbu_straight smiles=CCCC config_type=start_6 pbc="F F F"
C       -1.89614352      -0.16339600      -0.14602807
C       -0.59589638      -0.35151566       0.54138677
C        0.70615899       0.20213706      -0.02041495
C        1.96769537       0.18485012       0.92232708
H       -2.72176140      -0.24480080       0.50321301
H       -2.00188165       0.82803623      -0.54307704
H       -1.80770815      -0.94665968      -1.03936241
H       -0.65122658       0.67531431       1.71705148
H       -0.60925811      -1.27807032       1.10615689
H        0.79943995      -0.73074423      -0.81309087
H        0.49071837       1.07179321      -0.61783249
H        2.03922201       0.70381907       1.64436893
H        2.03290123      -1.01096565       1.28861613
H        2.97679846       0.29870706       0.39720387
14
Properties=species:S:1:pos:R:3 energy=-4305.138647313924 name=nbu_straight smiles=CCCC config_type=start_7 pbc="F F F"
C       -1.97764091      -0.16429636      -0.28448789
C       -0.55902262      -0.21783964       0.77793961
C        0.59433707       0.08415320      -0.00713725
C        2.03165017       0.15844115       0.77530538
H       -2.71105961      -0.51396820       0.46539231
H       -2.12841808       0.67372237      -0.68691516
H       -1.68012447      -0.94749884      -1.14861975
H       -0.73332883       0.46726931       1.46059957
H       -0.48241362      -1.26448206       1.23397787
H        0.71994245      -0.80621790      -0.89194943
H        0.41667906       1.26923654      -0.55334360
H        2.08900973       0.74680258       1.69613242
H        1.97512716      -1.15273066       1.41308267
H        2.77167147       0.31026189       0.27490771
14
Properties=species:S:1:pos:R:3 energy=-4305.138647313924 name=nbu_straight smiles=CCCC config_type=start_8 pbc="F F F"
C       -1.99057103      -0.17167675      -0.37110773
C       -0.49368646      -0.25423366       0.66544615
C        0.53835054      -0.02453860       0.03693968
C        2.00991858       0.16604943       0.77556994
H       -2.80537338      -0.30138096       0.39279421
H       -1.97944110       0.72309056      -0.76002238
H       -1.88009222      -0.89378816      -1.00783445
H       -0.77164644       0.72527492       1.52039897
H       -0.59411307      -1.38429898       1.11579518
H        0.83032389      -0.62063784      -0.96795696
H        0.67416253       1.24583375      -0.44788342
H        1.78136217       0.81442836       1.70330897
H        2.00194360      -0.88156440       1.18340725
H        2.60729649       0.21516942       0.20613735
14
Properties=species:S:1:pos:R:3 energy=-4305.138647313924 name=nbu_straight smiles=CCCC config_type=start_9 pbc="F F F"
C       -1.86294672      -0.21288918      -0.19025148
C       -0.53210333      -0.09405240       0.76075900
C        0.56156100       0.13102100      -0.05048305
C        1.85587557       0.17735021       0.74245349
H       -2.79638030      -0.50906305       0.50629426
H       -1.98835636       0.78635835      -0.69761261
H       -1.79924385      -0.96612504      -0.99351905
H       -0.90390932       0.38093765       1.75843807
H       -0.48303938      -1.30095374       1.19323988
H        0.91042861      -0.45072650      -0.72091637
H        0.66203824       1.11150101      -0.60138037
H        1.94662314       0.84527027       1.67496008
H        2.18349325      -0.81088057       1.19175148
H        2.80121525       0.09336648       0.09083315
14
Properties=species:S:1:pos:R:3 energy=-4305.138647313924 name=nbu_straight smiles=CCCC config_type=start_10 pbc="F F F"
C       -1.89995371      -0.07920647      -0.14786629
C       -0.74735731      -0.14670876       0.58901967
C        0.72813410       0.02092935      -0.07046875
C        1.82387793      -0.06162739       0.74021820
H       -2.81019057      -0.37249958       0.48063226
H       -2.06192074       0.83481076      -0.53050213
H       -2.03469665      -0.76552702      -1.08817174
H       -0.65072175       0.40049372       1.42587783
H       -0.59122060      -1.36098346       1.34477573
H        0.77915655      -0.53494163      -0.88606987
H        0.59324261       1.16905919      -0.45565893
H        2.00501862       0.83459856       1.63118250
H        2.02037822      -0.98931712       1.31124417
H        2.81256484       0.35699613       0.24800260
14
Properties=species:S:1:pos:R:3 energy=-4305.138647313924 name=nbu_straight smiles=CCCC config_type=start_11 pbc="F F F"
C       -1.88842401      -0.25469512      -0.23692216
C       -0.65347927      -0.02667149       0.87611869
C        0.60071344       0.20938072      -0.25558849
C        1.87440577       0.12906702       0.74679807
H       -2.73431242      -0.32417263       0.37191865
H       -2.15466334       0.82473194      -0.61606057
H       -1.79936969      -0.89304000      -1.05656203
H       -0.49292815       0.54436515       1.41488462
H       -0.61516407      -1.12321458       1.21871915
H        0.78874153      -0.68013075      -0.71249953
H        0.64880782       1.14297848      -0.56846308
H        2.03044113       0.83923526       1.70135030
H        2.03563212      -0.90668844       1.22902876
H        2.81315916       0.32344783       0.20192659
14
Properties=species:S:1:pos:R:3 energy=-4305.138647313924 name=nbu_straight smiles=CCCC config_type=start_12 pbc="F F F"
C       -1.88489182      -0.28775382      -0.01498530
C       -0.75004625      -0.31023555       0.62879572
C        0.72998517       0.12977213       0.00423311
C        2.00491891       0.01767634       0.70688356
H       -2.76699346      -0.35105891       0.51941957
H       -2.07887539       0.68619075      -0.74481600
H       -1.95225868      -1.03573549      -1.02487023
H       -0.87979808       0.45292344       1.41320962
H       -0.50412148      -1.11388576       1.06698799
H        0.79459389      -0.71680469      -0.89175595
H        0.47176755       1.20603310      -0.36067146
H        1.88192234       0.84140749       1.64584305
H        1.92902891      -0.95638715       1.21204558
H        2.78559978       0.44102104       0.27581245
14
Properties=species:S:1:pos:R:3 energy=-4305.138647313924 name=nbu_straight smiles=CCCC config_type=start_13 pbc="F F F"
C       -1.69326190      -0.13026132      -0.06408398
C       -0.63201803      -0.10214800       0.84117353
C        0.59247607       0.01727651      -0.04472076
C        1.91218360       0.07262286       0.85922268
H       -2.78257133      -0.44709618       0.29610036
H       -1.91796548       0.73514440      -0.77345411
H       -1.73726005      -0.97470346      -0.99877108
H       -0.56593313       0.50413752       1.70500853
H       -0.52798480      -1.21758423       1.19667156
H        0.66528983      -0.61998803      -0.84317217
H        0.58103351       0.98419399      -0.70501386
H        1.89864466       0.83872502       1.79033282
H        2.02304304      -1.03198980       1.10748707
H        2.98802531       0.30910699       0.26709651
14
Properties=species:S:1:pos:R:3 energy=-4305.138647313924 name=nbu_straight smiles=CCCC config_type=start_14 pbc="F F F"
C       -1.75257719      -0.39714409      -0.15900643
C       -0.67903313      -0.12435716       0.76011960
C        0.58042070       0.08690933       0.12685791
C        1.86566938       0.18039982       0.91566244
H       -2.94648510      -0.36279973       0.39661426
H       -2.27697691       0.57172016      -0.74631411
H       -1.93180051      -0.76538032      -1.04251135
H       -0.72115518       0.58407311       1.46252578
H       -0.60894596      -1.35049234       1.16434893
H        0.78632590      -0.66139590      -0.68217882
H        0.60345428       0.92522927      -0.50427269
H        1.86462595       0.75676875       1.66394849
H        1.94198414      -1.12667993       1.29415323
H        2.65197768       0.23548282       0.24246769
14
Properties=species:S:1:pos:R:3 energy=-4305.138647313924 name=nbu_straight smiles=CCCC config_type=start_15 pbc="F F F"
C       -1.74184856      -0.17187782      -0.35609529
C       -0.58498256      -0.27450973       0.80110227
C        0.56990948      -0.03346400       0.06844290
C        1.99287890       0.11166136       0.78813945
H       -2.91488896      -0.25893678       0.31084784
H       -2.03012140       0.88367738      -0.58731074
H       -1.88979242      -0.87700223      -1.15270724
H       -0.69438543       0.40804053       1.53119388
H       -0.53472192      -1.30813474       1.16139216
H        0.81519944      -0.65285555      -0.83975852
H        0.47914380       1.04113225      -0.55727057
H        2.02760230       0.80163757       1.71878657
H        2.12995775      -0.85460199       1.34115163
H        2.83258378       0.33513137       0.24372429
14
Properties=species:S:1:pos:R:3 energy=-4305.138647313924 name=nbu_straight smiles=CCCC config_type=start_16 pbc="F F F"
C       -2.07763758      -0.29715560      -0.17913612
C       -0.51902043      -0.03265789       0.74439273
C        0.74030140       0.06716267      -0.28795448
C        1.75510274       0.01652530       0.77078080
H       -2.66725410      -0.42069273       0.48887731
H       -2.06223060       0.91615993      -0.59426052
H       -1.88790218      -0.88476714      -1.19187541
H       -0.69887331       0.62529998       1.56216868
H       -0.54601318      -1.27074805       1.28413480
H        0.81939273      -0.62997417      -0.81725163
H        0.44909810       1.04709223      -0.57546988
H        1.73672165       0.77514053       1.59174274
H        2.04227143      -0.92585581       1.13316110
H        2.87945772       0.09022308       0.16025090
14
Properties=species:S:1:pos:R:3 energy=-4305.138647313924 name=nbu_straight smiles=CCCC config_type=start_17 pbc="F F F"
C       -1.81839385      -0.04119783      -0.04873550
C       -0.54211232      -0.18448191       0.73491456
C        0.73101778       0.09787800       0.00564270
C        1.90576322      -0.13557089       0.75415200
H       -2.69441122      -0.27147001       0.53893443
H       -1.93649593       0.61630421      -0.43733445
H       -1.86524137      -0.95933939      -1.11281848
H       -0.94177533       0.71690047       1.45301457
H       -0.75199521      -1.19929707       1.20729018
H        0.59947906      -0.74537509      -1.02811440
H        0.55692861       1.15527253      -0.53306325
H        1.79209376       0.87508552       1.71625245
H        1.95368686      -1.04207936       1.25438637
H        2.81943278       0.31222132       0.33871606
14
Properties=species:S:1:pos:R:3 energy=-4305.138647313924 name=nbu_straight smiles=CCCC config_type=start_18 pbc="F F F"
C       -2.05445886      -0.14987946      -0.21496650
C       -0.68433955      -0.12118827       0.64486299
C        0.71247917       0.00142318      -0.14208234
C        1.87524069       0.12453392       0.83808870
H       -2.81101840      -0.33356404       0.26177281
H       -1.96794126       0.74026559      -0.57167104
H       -1.97845909      -0.97990835      -1.08262177
H       -0.54451499       0.58958206       1.57900212
H       -0.59231721      -1.13063330       1.27147018
H        0.70280256      -0.61630772      -0.94515870
H        0.63759490       1.14507833      -0.55533676
H        1.88767378       0.83229718       1.53805786
H        2.04756153      -0.92644263       1.20118785
H        2.56092602       0.24632790       0.25453679
14
Properties=species:S:1:pos:R:3 energy=-4305.138647313924 name=nbu_straight smiles=CCCC config_type=start_19 pbc="F F F"
C       -1.95754113      -0.04712188      -0.10740099
C       -0.65060131      -0.22470343       0.63256311
C        0.56180854       0.04579238      -0.14639770
C        1.94138119       0.03189984       0.71577295
H       -2.90291438      -0.33803889       0.32217997
H       -1.91909773       0.70235248      -0.62708781
H       -1.75375757      -1.00165587      -1.17164328
H       -0.61818300       0.56472254       1.59126798
H       -0.70735163      -1.24841641       0.93176535
H        0.82489967      -0.61338870      -0.73668673
H        0.54164624       1.20468390      -0.45169948
H        1.90286424       0.89877899       1.55075025
H        2.11327863      -1.02363775       1.16884115
H        3.01383640       0.40836076       0.22954457
14
Properties=species:S:1:pos:R:3 energy=-4305.138647313924 name=nbu_straight smiles=CCCC config_type=start_20 pbc="F F F"
C       -1.72087042      -0.27920586      -0.25886092
C       -0.65793573      -0.20816886       0.81695882
C        0.50510927       0.16077407      -0.16155371
C        1.80454562       0.11539432       0.83625552
H       -2.63336615      -0.41327155       0.34353434
H       -1.94055416       0.87937982      -0.67161470
H       -1.78252064      -0.92596771      -0.81005349
H       -0.92288179       0.39441486       1.55515606
H       -0.46629553      -1.24582265       1.20713955
H        0.79174040      -0.75906351      -0.80025606
H        0.47234741       1.11633221      -0.45925231
H        1.88901302       0.86274200       1.65282833
H        1.96798151      -0.94793717       1.28895255
H        2.76909306       0.34712518       0.19469943
14
Properties=species:S:1:pos:R:3 energy=-4305.138647313924 name=nbu_straight smiles=CCCC config_type=start_21 pbc="F F F"
C       -1.74269931       0.04172706      -0.06219604
C       -0.55280729      -0.19394652       0.58068257
C        0.75530347       0.22426636      -0.11057773
C        1.92474509      -0.14723027       0.79154523
H       -2.82622340      -0.33801736       0.49389881
H       -2.04631288       0.67963906      -0.70846082
H       -1.70467504      -0.81997696      -1.04298473
H       -0.76219281       0.60432594       1.51001478
H       -0.48951715      -1.09803954       1.16939034
H        0.68099326      -0.72513709      -1.00623673
H        0.37812369       1.01450506      -0.42846483
H        1.86266683       0.83758045       1.68210076
H        2.07891994      -0.80930020       1.27438150
H        2.42354611       0.47566765       0.13818970
14
Properties=species:S:1:pos:R:3 energy=-4305.138647313924 name=nbu_straight smiles=CCCC config_type=start_22 pbc="F F F"
C       -1.79239452      -0.36397359      -0.31508667
C       -0.57788482      -0.18289841       0.69254529
C        0.73850657      -0.02662114       0.08615275
C        1.83845517       0.02640668       0.73011750
H       -2.92621006      -0.46865235       0.50687235
H       -1.81985871       0.91924301      -0.71972677
H       -1.87515907      -0.72786455      -0.97745507
H       -0.82675040       0.53780179       1.61944805
H       -0.49170349      -1.36536524       1.09696681
H        0.59173117      -0.65302642      -0.79480741
H        0.59415723       1.10140225      -0.56347108
H        1.87727247       0.84769640       1.51149887
H        2.10221269      -0.92158517       1.20083655
H        2.92361158       0.34477952       0.34563624
14
Properties=species:S:1:pos:R:3 energy=-4305.138647313924 name=nbu_straight smiles=CCCC config_type=start_23 pbc="F F F"
C       -1.81748948      -0.00329754      -0.43882780
C       -0.61734444      -0.20368003       0.86566145
C        0.57939192       0.07135668      -0.03757234
C        2.00200209      -0.06942302       0.87892178
H       -2.59830114      -0.55052246       0.60859018
H       -2.11271704       0.83097154      -0.78634120
H       -1.87029027      -0.86437987      -0.88468595
H       -0.88589458       0.64785551       1.47977294
H       -0.49090560      -1.23615370       1.14248116
H        0.84266499      -0.64616828      -0.95098470
H        0.47662964       1.03311390      -0.48704359
H        1.88272576       0.80507859       1.50293899
H        2.04181170      -0.87725987       1.14530517
H        2.86012761       0.38951561       0.27056359
14
Properties=species:S:1:pos:R:3 energy=-4305.138647313924 name=nbu_straight smiles=CCCC config_type=start_24 pbc="F F F"
C       -1.85648755      -0.13549377      -0.26906935
C       -0.54240388      -0.12604751       0.80489869
C        0.71383121      -0.06551324       0.07389374
C        1.84807221       0.07393004       0.68795290
H       -2.72839124      -0.50843036       0.59197345
H       -1.76560961       1.03075326      -0.59116645
H       -1.82856095      -0.82832426      -0.98105140
H       -0.80499417       0.34002846       1.64719874
H       -0.60430168      -1.16510179       1.21963587
H        0.68977184      -0.46726750      -0.93787431
H        0.59675576       1.20909353      -0.52299652
H        1.70679803       0.67954074       1.77125014
H        2.08248245      -0.88223235       1.09226884
H        2.76903178       0.50443069       0.27808119
