14
Properties=species:S:1:pos:R:3 energy=-4305.170793189098 smiles=CCCC name=tbu config_type=start_0 pbc="F F F"
C        0.03888620       0.05373014      -0.36479682
C        0.47254531       1.40104772       0.29010021
C       -1.40224284      -0.25708057      -0.20963264
C        0.88387930      -1.14961198      -0.02195522
H        0.21765247       0.21168681      -1.49453099
H       -0.12043999       2.24821591      -0.04985647
H        1.47339895       1.63864318       0.08023909
H        0.37883654       1.29468250       1.37096753
H       -1.65838867      -0.38144388       0.88273117
H       -2.10390521       0.61053044      -0.55111592
H       -1.77997704      -1.16855303      -0.72709797
H        0.71389066      -1.32479212       1.11418916
H        2.00250961      -0.93410457      -0.26003407
H        0.67015146      -2.00920318      -0.58141652
14
Properties=species:S:1:pos:R:3 energy=-4305.170793189098 smiles=CCCC name=tbu config_type=start_1 pbc="F F F"
C        0.05915976       0.06678294      -0.45815311
C        0.43455356       1.33640426       0.27439276
C       -1.43344121      -0.21317191      -0.17209982
C        0.86498230      -1.11016919      -0.05558603
H        0.19821063       0.22849245      -1.54055501
H       -0.19061441       2.22637869      -0.04505077
H        1.47965758       1.61154972       0.07471779
H        0.30538823       1.27003266       1.32840458
H       -1.66070131      -0.37818135       0.84356151
H       -2.09874504       0.56736892      -0.55376855
H       -1.79304066      -1.15369118      -0.75934494
H        0.80830103      -1.33115685       1.09176700
H        1.96495245      -0.93747843      -0.23240639
H        0.59398511      -1.99474203      -0.54750324
14
Properties=species:S:1:pos:R:3 energy=-4305.170793189098 smiles=CCCC name=tbu config_type=start_2 pbc="F F F"
C        0.01164339       0.09425096      -0.37917343
C        0.47811109       1.30205300       0.26915221
C       -1.49352655      -0.23788235      -0.24118530
C        0.94269084      -1.11042197      -0.01490696
H        0.19548539       0.27202414      -1.48319744
H       -0.15405801       2.22000162      -0.06477664
H        1.50309618       1.61204242       0.03829339
H        0.27823701       1.27678478       1.34398490
H       -1.66512958      -0.38183800       0.87885392
H       -2.09639045       0.57358737      -0.48534452
H       -1.80919654      -1.09026103      -0.73586704
H        0.82059352      -1.27721462       1.08721048
H        2.00927560      -0.94012816      -0.22526605
H        0.60572624      -2.06181912      -0.60930000
14
Properties=species:S:1:pos:R:3 energy=-4305.170793189098 smiles=CCCC name=tbu config_type=start_3 pbc="F F F"
C       -0.00510973       0.05189159      -0.40830433
C        0.43262023       1.41020186       0.23179513
C       -1.49003080      -0.24739027      -0.24844813
C        0.87865133      -1.14169659      -0.02862931
H        0.15301565       0.17597220      -1.52510650
H       -0.19348528       2.25111889      -0.07319756
H        1.51538321       1.59528222       0.08063499
H        0.33473144       1.31300097       1.39522140
H       -1.70353860      -0.43216796       0.89983418
H       -2.09947883       0.64836470      -0.52104381
H       -1.74055529      -1.17727854      -0.75088649
H        0.76933757      -1.24729290       1.13276282
H        2.04510883      -0.93467173      -0.22141715
H        0.68454484      -2.06444404      -0.56142652
14
Properties=species:S:1:pos:R:3 energy=-4305.170793189098 smiles=CCCC name=tbu config_type=start_4 pbc="F F F"
C        0.07556368       0.07009745      -0.48147702
C        0.44482194       1.38444647       0.23066747
C       -1.50610866      -0.22057856      -0.23314107
C        0.95791992      -1.10419339       0.03477603
H        0.20689678       0.25536145      -1.53500559
H       -0.18877788       2.27901411      -0.01336147
H        1.52838131       1.57579078       0.10254357
H        0.33327454       1.26327090       1.39678944
H       -1.64582287      -0.43766026       0.91025746
H       -2.10744282       0.63726642      -0.51910407
H       -1.79634628      -1.13849470      -0.74415200
H        0.82926633      -1.27758604       1.07735255
H        1.98015779      -0.88675362      -0.21069478
H        0.64435662      -2.04083955      -0.50798466
14
Properties=species:S:1:pos:R:3 energy=-4305.170793189098 smiles=CCCC name=tbu config_type=start_5 pbc="F F F"
C        0.01391922       0.07054687      -0.41620626
C        0.47919695       1.39094353       0.27816425
C       -1.49526296      -0.26592173      -0.22552248
C        0.93894381      -1.12652318      -0.00372393
H        0.16739810       0.25661228      -1.55979179
H       -0.12466494       2.21210042      -0.07186615
H        1.52677622       1.57731470       0.09012296
H        0.40445982       1.29620025       1.37370912
H       -1.62773946      -0.41627500       0.88165734
H       -2.08076741       0.60594743      -0.52965507
H       -1.78537154      -1.16485489      -0.75091518
H        0.81965686      -1.33641630       1.08777732
H        1.97889850      -0.93811798      -0.26292654
H        0.64659876      -2.02007069      -0.52332739
14
Properties=species:S:1:pos:R:3 energy=-4305.170793189098 smiles=CCCC name=tbu config_type=start_6 pbc="F F F"
C        0.02866184       0.07402730      -0.43198062
C        0.46446549       1.31895720       0.22575993
C       -1.43909370      -0.20054718      -0.19620989
C        0.92771451      -1.07561617       0.01781712
H        0.20108718       0.27267056      -1.49901380
H       -0.14944519       2.22299727      -0.03049701
H        1.51685666       1.59040450       0.06763978
H        0.35507153       1.31201889       1.42352594
H       -1.67792543      -0.41123820       0.84795367
H       -2.08421652       0.57012113      -0.52445236
H       -1.79281549      -1.15035234      -0.77515265
H        0.86087300      -1.33834038       1.07067358
H        1.97551517      -0.93635520      -0.20773946
H        0.67871214      -2.03478898      -0.50509474
14
Properties=species:S:1:pos:R:3 energy=-4305.170793189098 smiles=CCCC name=tbu config_type=start_7 pbc="F F F"
C        0.00421263       0.07375719      -0.47351857
C        0.47552761       1.35906001       0.29672578
C       -1.47264028      -0.23594234      -0.19222658
C        0.94690095      -1.08353885      -0.02628939
H        0.20429772       0.19192034      -1.51036001
H       -0.18740612       2.17670311      -0.07364845
H        1.55513176       1.59015275       0.03486258
H        0.33044085       1.24960539       1.34659037
H       -1.63987209      -0.40716172       0.88629996
H       -2.10806577       0.54747903      -0.54810993
H       -1.81502728      -1.09111934      -0.75580598
H        0.87580932      -1.32544533       1.08620263
H        1.95818295      -0.97888470      -0.17039950
H        0.61717404      -2.03132253      -0.54178359
14
Properties=species:S:1:pos:R:3 energy=-4305.170793189098 smiles=CCCC name=tbu config_type=start_8 pbc="F F F"
C        0.00033359       0.07154307      -0.49950452
C        0.49512846       1.34814180       0.26297774
C       -1.48943624      -0.26854988      -0.17900350
C        0.94038147      -1.08125637      -0.02621002
H        0.17600359       0.25569651      -1.53213944
H       -0.14271303       2.19151357      -0.09558061
H        1.49514143       1.60626595       0.07709817
H        0.31894557       1.32700707       1.36453019
H       -1.67338192      -0.44310680       0.85084516
H       -2.07495133       0.60315305      -0.57091219
H       -1.73778224      -1.09814018      -0.72416793
H        0.78351505      -1.30515759       1.08835559
H        1.96622788      -0.89753482      -0.23930213
H        0.56786155      -2.05985027      -0.56241469
14
Properties=species:S:1:pos:R:3 energy=-4305.170793189098 smiles=CCCC name=tbu config_type=start_9 pbc="F F F"
C        0.03862088       0.05917934      -0.44524764
C        0.48360340       1.39619618       0.29157160
C       -1.48247310      -0.22188200      -0.20523031
C        0.89416857      -1.07786614      -0.03614495
H        0.17870151       0.19339189      -1.49808942
H       -0.14538761       2.21049390      -0.07685768
H        1.51939595       1.58456489       0.08139279
H        0.27926670       1.22370589       1.43594192
H       -1.64005982      -0.41810322       0.87407856
H       -2.05091992       0.65412645      -0.49680001
H       -1.74141953      -1.13844000      -0.77021701
H        0.83309334      -1.29590502       1.07985092
H        2.02069278      -0.87632967      -0.23679886
H        0.62603718      -2.09639116      -0.59700596
14
Properties=species:S:1:pos:R:3 energy=-4305.170793189098 smiles=CCCC name=tbu config_type=start_10 pbc="F F F"
C        0.02751879       0.09928416      -0.43253209
C        0.41902721       1.38039927       0.24004980
C       -1.43250117      -0.25490950      -0.21122602
C        0.88456928      -1.14955942      -0.03681554
H        0.17455843       0.23436093      -1.50578802
H       -0.16745692       2.22502963      -0.02672454
H        1.44876011       1.64474429       0.05299698
H        0.35522297       1.22957272       1.33617385
H       -1.67251418      -0.43611214       0.91953932
H       -2.09030154       0.62886191      -0.54634606
H       -1.76205822      -1.12117254      -0.72650058
H        0.85061199      -1.29910653       1.06671765
H        1.97175827      -0.92986064      -0.20095105
H        0.62944205      -2.01730226      -0.54985512
14
Properties=species:S:1:pos:R:3 energy=-4305.170793189098 smiles=CCCC name=tbu config_type=start_11 pbc="F F F"
C        0.03097770       0.04663756      -0.45924885
C        0.44719062       1.41641045       0.32617951
C       -1.47072737      -0.19837408      -0.26676195
C        0.89972763      -1.09235109      -0.03484158
H        0.19732187       0.24885901      -1.53840210
H       -0.19527970       2.22200598      -0.05239207
H        1.51935819       1.60649040       0.06247989
H        0.40256106       1.27273414       1.33287589
H       -1.67969722      -0.36478147       0.88172234
H       -2.08742604       0.58530517      -0.49427496
H       -1.74538865      -1.12899675      -0.76034182
H        0.85823874      -1.29771552       1.08776799
H        1.97633443      -0.90507203      -0.22561567
H        0.62962035      -2.02736675      -0.56367792
14
Properties=species:S:1:pos:R:3 energy=-4305.170793189098 smiles=CCCC name=tbu config_type=start_12 pbc="F F F"
C        0.03203735       0.03671995      -0.39266779
C        0.41822052       1.33134123       0.25198262
C       -1.43194585      -0.22225666      -0.18881547
C        0.93888157      -1.12576830      -0.04681593
H        0.18751756       0.24079313      -1.49415183
H       -0.17254332       2.18044362      -0.09101870
H        1.47349150       1.56368175       0.07198743
H        0.28650008       1.24530163       1.33237339
H       -1.64638444      -0.36198283       0.83620300
H       -2.08567033       0.57430299      -0.54805188
H       -1.79850074      -1.11008037      -0.69800434
H        0.81368310      -1.29706385       1.07111582
H        1.94435347      -0.91998165      -0.23071063
H        0.62135253      -1.99209479      -0.54151217
14
Properties=species:S:1:pos:R:3 energy=-4305.170793189098 smiles=CCCC name=tbu config_type=start_13 pbc="F F F"
C        0.08952633       0.08396770      -0.40739739
C        0.45362899       1.39376750       0.31569596
C       -1.47319858      -0.25600535      -0.20350163
C        0.91106098      -1.10928434      -0.00111420
H        0.18284420       0.21198195      -1.56114759
H       -0.12427034       2.19512972      -0.09961013
H        1.53799108       1.58199136       0.07981718
H        0.38065956       1.26066586       1.41991306
H       -1.65354344      -0.39309237       0.87510807
H       -2.12446155       0.60334799      -0.53347675
H       -1.76572095      -1.17663210      -0.80130706
H        0.81869980      -1.29786860       1.11446275
H        1.97255771      -0.94266244      -0.26207818
H        0.68208019      -2.03166900      -0.54412695
14
Properties=species:S:1:pos:R:3 energy=-4305.170793189098 smiles=CCCC name=tbu config_type=start_14 pbc="F F F"
C        0.07173174       0.00390287      -0.43587413
C        0.43952446       1.38710475       0.29137978
C       -1.47681519      -0.23511550      -0.15202803
C        0.89710671      -1.07695126       0.01581773
H        0.13367007       0.23727088      -1.53099342
H       -0.23197377       2.14610245      -0.09146813
H        1.47962895       1.64478830       0.06669509
H        0.33409295       1.28464653       1.34716824
H       -1.67783179      -0.43296480       0.86541128
H       -2.08815073       0.59092563      -0.48517875
H       -1.75899472      -1.19432152      -0.74108471
H        0.80849418      -1.32245547       1.07654745
H        1.94824004      -0.97106948      -0.20607833
H        0.58126590      -2.05375625      -0.55151559
14
Properties=species:S:1:pos:R:3 energy=-4305.170793189098 smiles=CCCC name=tbu config_type=start_15 pbc="F F F"
C        0.07495033       0.07148275      -0.49500079
C        0.46773963       1.34205898       0.30367458
C       -1.47996856      -0.27122750      -0.16955253
C        0.93526957      -1.09757279      -0.02243916
H        0.14314891       0.26842977      -1.55672335
H       -0.15791712       2.23968961      -0.04376712
H        1.49223137       1.61130173       0.03363633
H        0.34212387       1.23183676       1.36776866
H       -1.65556458      -0.42025752       0.86452425
H       -2.07948867       0.59348773      -0.53245266
H       -1.79628786      -1.15955062      -0.75698407
H        0.85738709      -1.30899483       1.09299887
H        2.00463213      -0.88944610      -0.19197881
H        0.63544774      -2.02386169      -0.55113861
14
Properties=species:S:1:pos:R:3 energy=-4305.170793189098 smiles=CCCC name=tbu config_type=start_16 pbc="F F F"
C       -0.02578637       0.03389942      -0.44191304
C        0.48752827       1.41461453       0.28666172
C       -1.42885098      -0.24103950      -0.27647174
C        0.86393672      -1.12611361      -0.02764676
H        0.21743937       0.21990298      -1.50331451
H       -0.16754988       2.24943438      -0.04585205
H        1.49279845       1.60897226       0.02188588
H        0.34077751       1.29701460       1.37706111
H       -1.65895195      -0.40904152       0.90134704
H       -2.07823068       0.60035215      -0.52570059
H       -1.80530157      -1.15776263      -0.76244386
H        0.77012290      -1.31694394       1.05488572
H        1.97832623      -0.91082224      -0.25437597
H        0.64950992      -2.09733418      -0.57618063
14
Properties=species:S:1:pos:R:3 energy=-4305.170793189098 smiles=CCCC name=tbu config_type=start_17 pbc="F F F"
C        0.05198674       0.11068675      -0.40279285
C        0.48060070       1.36906733       0.28381827
C       -1.43163607      -0.23182490      -0.18839259
C        0.90913487      -1.17174247      -0.03263540
H        0.20929223       0.26466980      -1.48829737
H       -0.12982948       2.15947766       0.00122576
H        1.49959669       1.58660058       0.04560296
H        0.26790690       1.32449474       1.34431487
H       -1.72074656      -0.38760622       0.87829365
H       -2.14420478       0.56573187      -0.58895942
H       -1.77295242      -1.12530854      -0.74972188
H        0.78673453      -1.28696044       1.09223864
H        1.95175086      -0.94568931      -0.21800839
H        0.63150243      -2.03073470      -0.52264108
14
Properties=species:S:1:pos:R:3 energy=-4305.170793189098 smiles=CCCC name=tbu config_type=start_18 pbc="F F F"
C       -0.01883276       0.07808226      -0.45266215
C        0.43793254       1.38805542       0.25680280
C       -1.43719765      -0.26076134      -0.23271010
C        0.89997811      -1.09371102      -0.00745439
H        0.17431008       0.24604159      -1.57144586
H       -0.13926308       2.19666608      -0.03907521
H        1.46563137       1.58042989       0.05466197
H        0.38708500       1.28629922       1.38211114
H       -1.67284316      -0.36700709       0.89754765
H       -2.11320773       0.60445208      -0.56407271
H       -1.74875253      -1.12836680      -0.75640393
H        0.81540854      -1.29979695       1.03878026
H        1.97991326      -0.91099829      -0.23396795
H        0.55395041      -2.05050273      -0.54789486
14
Properties=species:S:1:pos:R:3 energy=-4305.170793189098 smiles=CCCC name=tbu config_type=start_19 pbc="F F F"
C        0.01024256       0.10890954      -0.42039250
C        0.44805401       1.35700087       0.25311283
C       -1.48239884      -0.24745059      -0.23400471
C        0.91982026      -1.12150125      -0.04414912
H        0.14674128       0.24469913      -1.55332371
H       -0.12461002       2.18529215      -0.05570024
H        1.53304183       1.57390564       0.02795552
H        0.36498460       1.27884136       1.38579089
H       -1.70735349      -0.40234202       0.79563620
H       -2.07657860       0.60532779      -0.50153112
H       -1.77753713      -1.11048513      -0.72531274
H        0.81996567      -1.27985240       1.04258798
H        1.99962839      -0.94015682      -0.24367196
H        0.68982352      -2.00189287      -0.55539253
14
Properties=species:S:1:pos:R:3 energy=-4305.170793189098 smiles=CCCC name=tbu config_type=start_20 pbc="F F F"
C        0.08124377       0.03928434      -0.46583048
C        0.44585368       1.36196124       0.30843155
C       -1.49940862      -0.21295608      -0.23855151
C        0.87876958      -1.09645290      -0.00800434
H        0.22760575       0.22212934      -1.54691740
H       -0.13104695       2.23840035      -0.06905831
H        1.52441291       1.59661209       0.13643245
H        0.27357496       1.22774906       1.37495732
H       -1.63503666      -0.40156389       0.87824847
H       -2.08652638       0.56162535      -0.52060192
H       -1.79832678      -1.13699064      -0.72757859
H        0.81581031      -1.29066350       1.07321140
H        1.95603925      -0.91744665      -0.20763854
H        0.61640052      -2.02026355      -0.56584607
14
Properties=species:S:1:pos:R:3 energy=-4305.170793189098 smiles=CCCC name=tbu config_type=start_21 pbc="F F F"
C        0.07469511       0.13556422      -0.40683101
C        0.47739221       1.36622794       0.23754867
C       -1.42435036      -0.19390839      -0.22325872
C        0.91482943      -1.17524028      -0.02141743
H        0.16974858       0.24470559      -1.50180806
H       -0.16277456       2.17847812      -0.08011214
H        1.54776659       1.62840931       0.06655308
H        0.32178166       1.29072238       1.36141493
H       -1.64200314      -0.35722896       0.86692370
H       -2.11975052       0.57180327      -0.58239612
H       -1.82659389      -1.16753878      -0.71834235
H        0.80790645      -1.29821196       1.08199313
H        1.98932078      -0.87585556      -0.21200985
H        0.51273643      -1.98170081      -0.58279899
14
Properties=species:S:1:pos:R:3 energy=-4305.170793189098 smiles=CCCC name=tbu config_type=start_22 pbc="F F F"
C        0.05978655       0.01385402      -0.48269820
C        0.46986895       1.36954238       0.27110749
C       -1.42938943      -0.26917464      -0.16423958
C        0.88894245      -1.12314920      -0.03984575
H        0.13975258       0.20551510      -1.49791599
H       -0.09483831       2.25035930      -0.08349193
H        1.49662138       1.65604303       0.08621198
H        0.30241438       1.27076514       1.39424492
H       -1.64265905      -0.43742667       0.84519664
H       -2.14652915       0.59343647      -0.51896732
H       -1.76178383      -1.14146962      -0.75884423
H        0.81228814      -1.29517718       1.03081256
H        1.99630861      -0.90954105      -0.23407334
H        0.66275607      -2.02096724      -0.52056503
14
Properties=species:S:1:pos:R:3 energy=-4305.170793189098 smiles=CCCC name=tbu config_type=start_23 pbc="F F F"
C        0.05225806       0.12205684      -0.51982054
C        0.45803107       1.36330789       0.32304233
C       -1.47712382      -0.23978130      -0.20135710
C        0.93800653      -1.15189810       0.00479553
H        0.23812526       0.18095406      -1.46740065
H       -0.18269581       2.22387786      -0.10347626
H        1.49808202       1.61508844       0.11404272
H        0.28467113       1.30378125       1.35234238
H       -1.64241968      -0.39866321       0.85885095
H       -2.07124900       0.59549392      -0.56582051
H       -1.79704211      -1.16195613      -0.73591598
H        0.81392413      -1.30796252       1.02824460
H        1.97818831      -0.89624346      -0.25073275
H        0.64371088      -2.00754642      -0.54308682
14
Properties=species:S:1:pos:R:3 energy=-4305.170793189098 smiles=CCCC name=tbu config_type=start_24 pbc="F F F"
C        0.04055863       0.08239797      -0.46889301
C        0.48051324       1.38659765       0.30481351
C       -1.43679204      -0.28084227      -0.16791728
C        0.89182756      -1.10889219      -0.05249513
H        0.19909823       0.19358169      -1.47238566
H       -0.07856358       2.28381238      -0.04492384
H        1.51060081       1.62590512       0.08513308
H        0.30894125       1.21143314       1.40257012
H       -1.67643850      -0.37734764       0.88199736
H       -2.11711695       0.64916415      -0.56188739
H       -1.76100427      -1.10916224      -0.74670186
H        0.76114581      -1.34562388       1.10873794
H        1.99038953      -0.89773520      -0.26664365
H        0.61638213      -1.97307189      -0.54083154
