2
Properties=species:S:1:pos:R:3:dft_forces:R:3:forces:R:3 dft_energy=-2040.2215119607258 energy=-2056.7579791413855 pbc="F F F"
C        0.00000000       0.00000000       0.10000000      -0.00000000      -0.00000000    -160.51907314      -0.00000000      -0.00000000       1.18773287
C        0.00000000       0.00000000       0.90000000      -0.00000000      -0.00000000     160.51907314      -0.00000000      -0.00000000      -1.18773287
2
Properties=species:S:1:pos:R:3:dft_forces:R:3:forces:R:3 dft_energy=-2051.8951938911246 energy=-2056.7579791413855 pbc="F F F"
C        0.00000000       0.00000000       0.05344828      -0.00000000      -0.00000000     -94.93794842      -0.00000000      -0.00000000       1.18773287
C        0.00000000       0.00000000       0.94655172      -0.00000000      -0.00000000      94.93794842      -0.00000000      -0.00000000      -1.18773287
2
Properties=species:S:1:pos:R:3:dft_forces:R:3:forces:R:3 dft_energy=-2058.6274896121326 energy=-2056.7579791413855 pbc="F F F"
C        0.00000000       0.00000000       0.00689655      -0.00000000      -0.00000000     -52.87669779      -0.00000000      -0.00000000       1.18773287
C        0.00000000       0.00000000       0.99310345      -0.00000000      -0.00000000      52.87669779      -0.00000000      -0.00000000      -1.18773287
2
Properties=species:S:1:pos:R:3:dft_forces:R:3:forces:R:3 dft_energy=-2062.225946586103 energy=-2056.7579791413855 pbc="F F F"
C        0.00000000       0.00000000      -0.03965517      -0.00000000      -0.00000000     -26.51431839      -0.00000000      -0.00000000       1.18773287
C        0.00000000       0.00000000       1.03965517      -0.00000000      -0.00000000      26.51431839      -0.00000000      -0.00000000      -1.18773287
2
Properties=species:S:1:pos:R:3:dft_forces:R:3:forces:R:3 dft_energy=-2063.879371821069 energy=-2056.7579791413855 pbc="F F F"
C        0.00000000       0.00000000      -0.08620690      -0.00000000      -0.00000000     -10.35294327      -0.00000000      -0.00000000       1.18773287
C        0.00000000       0.00000000       1.08620690      -0.00000000      -0.00000000      10.35294327      -0.00000000      -0.00000000      -1.18773287
2
Properties=species:S:1:pos:R:3:dft_forces:R:3:forces:R:3 dft_energy=-2064.356162563218 energy=-2056.7579791413855 pbc="F F F"
C        0.00000000       0.00000000      -0.13275862      -0.00000000      -0.00000000      -0.75447230      -0.00000000      -0.00000000       1.18773287
C        0.00000000       0.00000000       1.13275862      -0.00000000      -0.00000000       0.75447230      -0.00000000      -0.00000000      -1.18773287
2
Properties=species:S:1:pos:R:3:dft_forces:R:3:forces:R:3 dft_energy=-2064.149630891782 energy=-2056.7579791413855 pbc="F F F"
C        0.00000000       0.00000000      -0.17931034      -0.00000000      -0.00000000       4.63793213      -0.00000000      -0.00000000       1.18773287
C        0.00000000       0.00000000       1.17931034      -0.00000000      -0.00000000      -4.63793213      -0.00000000      -0.00000000      -1.18773287
2
Properties=species:S:1:pos:R:3:dft_forces:R:3:forces:R:3 dft_energy=-2062.864630187018 energy=-2056.7579791413855 pbc="F F F"
C        0.00000000       0.00000000      -0.22586207      -0.00000000      -0.00000000       0.38512571      -0.00000000      -0.00000000       1.18773287
C        0.00000000       0.00000000       1.22586207      -0.00000000      -0.00000000      -0.38512571      -0.00000000      -0.00000000      -1.18773287
2
Properties=species:S:1:pos:R:3:dft_forces:R:3:forces:R:3 dft_energy=-2062.7136664936447 energy=-2056.7579791413855 pbc="F F F"
C        0.00000000       0.00000000      -0.27241379      -0.00000000      -0.00000000       2.62739124      -0.00000000      -0.00000000       1.18773287
C        0.00000000       0.00000000       1.27241379      -0.00000000      -0.00000000      -2.62739124      -0.00000000      -0.00000000      -1.18773287
2
Properties=species:S:1:pos:R:3:dft_forces:R:3:forces:R:3 dft_energy=-2062.4085814313003 energy=-2056.7579791413855 pbc="F F F"
C        0.00000000       0.00000000      -0.31896552      -0.00000000      -0.00000000       3.79278284      -0.00000000      -0.00000000       1.18773287
C        0.00000000       0.00000000       1.31896552      -0.00000000      -0.00000000      -3.79278284      -0.00000000      -0.00000000      -1.18773287
2
Properties=species:S:1:pos:R:3:dft_forces:R:3:forces:R:3 dft_energy=-2062.026633579133 energy=-2056.7579791413855 pbc="F F F"
C        0.00000000       0.00000000      -0.36551724      -0.00000000      -0.00000000       4.33492065      -0.00000000      -0.00000000       1.18773287
C        0.00000000       0.00000000       1.36551724      -0.00000000      -0.00000000      -4.33492065      -0.00000000      -0.00000000      -1.18773287
2
Properties=species:S:1:pos:R:3:dft_forces:R:3:forces:R:3 dft_energy=-2061.6119607224355 energy=-2056.7579791413855 pbc="F F F"
C        0.00000000       0.00000000      -0.41206897      -0.00000000      -0.00000000       4.52988786      -0.00000000      -0.00000000       1.18773287
C        0.00000000       0.00000000       1.41206897      -0.00000000      -0.00000000      -4.52988786      -0.00000000      -0.00000000      -1.18773287
2
Properties=species:S:1:pos:R:3:dft_forces:R:3:forces:R:3 dft_energy=-2061.188925587973 energy=-2056.7579791413855 pbc="F F F"
C        0.00000000       0.00000000      -0.45862069      -0.00000000      -0.00000000       4.53474650      -0.00000000      -0.00000000       1.18773287
C        0.00000000       0.00000000       1.45862069      -0.00000000      -0.00000000      -4.53474650      -0.00000000      -0.00000000      -1.18773287
2
Properties=species:S:1:pos:R:3:dft_forces:R:3:forces:R:3 dft_energy=-2060.770256147267 energy=-2056.7579791413855 pbc="F F F"
C        0.00000000       0.00000000      -0.50517241      -0.00000000      -0.00000000       4.43464936      -0.00000000      -0.00000000       1.18773287
C        0.00000000       0.00000000       1.50517241      -0.00000000      -0.00000000      -4.43464936      -0.00000000      -0.00000000      -1.18773287
2
Properties=species:S:1:pos:R:3:dft_forces:R:3:forces:R:3 dft_energy=-2060.3645645717106 energy=-2056.7579791413855 pbc="F F F"
C        0.00000000       0.00000000      -0.55172414      -0.00000000      -0.00000000       4.27392849      -0.00000000      -0.00000000       1.18773287
C        0.00000000       0.00000000       1.55172414      -0.00000000      -0.00000000      -4.27392849      -0.00000000      -0.00000000      -1.18773287
2
Properties=species:S:1:pos:R:3:dft_forces:R:3:forces:R:3 dft_energy=-2059.9749257694098 energy=-2056.7579791413855 pbc="F F F"
C        0.00000000       0.00000000      -0.59827586      -0.00000000      -0.00000000       4.07488442      -0.00000000      -0.00000000       1.18773287
C        0.00000000       0.00000000       1.59827586      -0.00000000      -0.00000000      -4.07488442      -0.00000000      -0.00000000      -1.18773287
2
Properties=species:S:1:pos:R:3:dft_forces:R:3:forces:R:3 dft_energy=-2059.6057958900105 energy=-2056.7579791413855 pbc="F F F"
C        0.00000000       0.00000000      -0.64482759      -0.00000000      -0.00000000       3.84942402      -0.00000000      -0.00000000       1.18773287
C        0.00000000       0.00000000       1.64482759      -0.00000000      -0.00000000      -3.84942402      -0.00000000      -0.00000000      -1.18773287
2
Properties=species:S:1:pos:R:3:dft_forces:R:3:forces:R:3 dft_energy=-2059.2575845833117 energy=-2056.7579791413855 pbc="F F F"
C        0.00000000       0.00000000      -0.69137931      -0.00000000      -0.00000000       3.60590563      -0.00000000      -0.00000000       1.18773287
C        0.00000000       0.00000000       1.69137931      -0.00000000      -0.00000000      -3.60590563      -0.00000000      -0.00000000      -1.18773287
2
Properties=species:S:1:pos:R:3:dft_forces:R:3:forces:R:3 dft_energy=-2058.933642998725 energy=-2056.7579791413855 pbc="F F F"
C        0.00000000       0.00000000      -0.73793103      -0.00000000      -0.00000000       3.35149660      -0.00000000      -0.00000000       1.18773287
C        0.00000000       0.00000000       1.73793103      -0.00000000      -0.00000000      -3.35149660      -0.00000000      -0.00000000      -1.18773287
2
Properties=species:S:1:pos:R:3:dft_forces:R:3:forces:R:3 dft_energy=-2058.6323235392592 energy=-2056.7579791413855 pbc="F F F"
C        0.00000000       0.00000000      -0.78448276      -0.00000000      -0.00000000       3.09326398      -0.00000000      -0.00000000       1.18773287
C        0.00000000       0.00000000       1.78448276      -0.00000000      -0.00000000      -3.09326398      -0.00000000      -0.00000000      -1.18773287
2
Properties=species:S:1:pos:R:3:dft_forces:R:3:forces:R:3 dft_energy=-2058.3562725466345 energy=-2056.7579791413855 pbc="F F F"
C        0.00000000       0.00000000      -0.83103448      -0.00000000      -0.00000000       2.83798984      -0.00000000      -0.00000000       1.18773287
C        0.00000000       0.00000000       1.83103448      -0.00000000      -0.00000000      -2.83798984      -0.00000000      -0.00000000      -1.18773287
2
Properties=species:S:1:pos:R:3:dft_forces:R:3:forces:R:3 dft_energy=-2058.102490610419 energy=-2056.7579791413855 pbc="F F F"
C        0.00000000       0.00000000      -0.87758621      -0.00000000      -0.00000000       2.59208396      -0.00000000      -0.00000000       1.18773287
C        0.00000000       0.00000000       1.87758621      -0.00000000      -0.00000000      -2.59208396      -0.00000000      -0.00000000      -1.18773287
2
Properties=species:S:1:pos:R:3:dft_forces:R:3:forces:R:3 dft_energy=-2057.8721235391276 energy=-2056.7579791413855 pbc="F F F"
C        0.00000000       0.00000000      -0.92413793      -0.00000000      -0.00000000       2.35917307      -0.00000000      -0.00000000       1.18773287
C        0.00000000       0.00000000       1.92413793      -0.00000000      -0.00000000      -2.35917307      -0.00000000      -0.00000000      -1.18773287
2
Properties=species:S:1:pos:R:3:dft_forces:R:3:forces:R:3 dft_energy=-2057.6620880298483 energy=-2056.7579791413855 pbc="F F F"
C        0.00000000       0.00000000      -0.97068966      -0.00000000      -0.00000000       2.14235844      -0.00000000      -0.00000000       1.18773287
C        0.00000000       0.00000000       1.97068966      -0.00000000      -0.00000000      -2.14235844      -0.00000000      -0.00000000      -1.18773287
2
Properties=species:S:1:pos:R:3:dft_forces:R:3:forces:R:3 dft_energy=-2057.4720320386677 energy=-2056.7579791413855 pbc="F F F"
C        0.00000000       0.00000000      -1.01724138      -0.00000000      -0.00000000       1.94386696      -0.00000000      -0.00000000       1.18773287
C        0.00000000       0.00000000       2.01724138      -0.00000000      -0.00000000      -1.94386696      -0.00000000      -0.00000000      -1.18773287
2
Properties=species:S:1:pos:R:3:dft_forces:R:3:forces:R:3 dft_energy=-2057.2995017258127 energy=-2056.7579791413855 pbc="F F F"
C        0.00000000       0.00000000      -1.06379310      -0.00000000      -0.00000000       1.76227571      -0.00000000      -0.00000000       1.18773287
C        0.00000000       0.00000000       2.06379310      -0.00000000      -0.00000000      -1.76227571      -0.00000000      -0.00000000      -1.18773287
2
Properties=species:S:1:pos:R:3:dft_forces:R:3:forces:R:3 dft_energy=-2057.1436150305276 energy=-2056.7579791413855 pbc="F F F"
C        0.00000000       0.00000000      -1.11034483      -0.00000000      -0.00000000       1.59709783      -0.00000000      -0.00000000       1.18773287
C        0.00000000       0.00000000       2.11034483      -0.00000000      -0.00000000      -1.59709783      -0.00000000      -0.00000000      -1.18773287
2
Properties=species:S:1:pos:R:3:dft_forces:R:3:forces:R:3 dft_energy=-2057.0019282389235 energy=-2056.7579791413855 pbc="F F F"
C        0.00000000       0.00000000      -1.15689655      -0.00000000      -0.00000000       1.44766641      -0.00000000      -0.00000000       1.18773287
C        0.00000000       0.00000000       2.15689655      -0.00000000      -0.00000000      -1.44766641      -0.00000000      -0.00000000      -1.18773287
2
Properties=species:S:1:pos:R:3:dft_forces:R:3:forces:R:3 dft_energy=-2056.8742381032616 energy=-2056.7579791413855 pbc="F F F"
C        0.00000000       0.00000000      -1.20344828      -0.00000000      -0.00000000       1.31217999      -0.00000000      -0.00000000       1.18773287
C        0.00000000       0.00000000       2.20344828      -0.00000000      -0.00000000      -1.31217999      -0.00000000      -0.00000000      -1.18773287
2
Properties=species:S:1:pos:R:3:dft_forces:R:3:forces:R:3 dft_energy=-2056.7579791413855 energy=-2056.7579791413855 pbc="F F F"
C        0.00000000       0.00000000      -1.25000000      -0.00000000      -0.00000000       1.18773287      -0.00000000      -0.00000000       1.18773287
C        0.00000000       0.00000000       2.25000000      -0.00000000      -0.00000000      -1.18773287      -0.00000000      -0.00000000      -1.18773287
