2
Properties=species:S:1:pos:R:3:forces:R:3:dft_forces:R:3 energy=-1042.9643963895398 free_energy=-1042.9643963895398 dft_energy=-1042.9643963895398 pbc="F F F"
C        0.00000000       0.00000000       0.10000000      -0.00000000      -0.00000000     -27.27033710      -0.00000000      -0.00000000     -27.27033710
H        0.00000000       0.00000000       0.90000000      -0.00000000      -0.00000000      27.27033710      -0.00000000      -0.00000000      27.27033710
2
Properties=species:S:1:pos:R:3:forces:R:3:dft_forces:R:3 energy=-1045.1201267720955 free_energy=-1045.1201267720955 dft_energy=-1045.1201267720955 pbc="F F F"
C        0.00000000       0.00000000       0.04375000      -0.00000000      -0.00000000     -12.57044426      -0.00000000      -0.00000000     -12.57044426
H        0.00000000       0.00000000       0.95625000      -0.00000000      -0.00000000      12.57044426      -0.00000000      -0.00000000      12.57044426
2
Properties=species:S:1:pos:R:3:forces:R:3:dft_forces:R:3 energy=-1046.0451919687468 free_energy=-1046.0451919687468 dft_energy=-1046.0451919687468 pbc="F F F"
C        0.00000000       0.00000000      -0.01250000      -0.00000000      -0.00000000      -4.69584113      -0.00000000      -0.00000000      -4.69584113
H        0.00000000       0.00000000       1.01250000      -0.00000000      -0.00000000       4.69584113      -0.00000000      -0.00000000       4.69584113
2
Properties=species:S:1:pos:R:3:forces:R:3:dft_forces:R:3 energy=-1046.3140310755205 free_energy=-1046.3140310755205 dft_energy=-1046.3140310755205 pbc="F F F"
C        0.00000000       0.00000000      -0.06875000      -0.00000000      -0.00000000      -0.53350000      -0.00000000      -0.00000000      -0.53350000
H        0.00000000       0.00000000       1.06875000      -0.00000000      -0.00000000       0.53350000      -0.00000000      -0.00000000       0.53350000
2
Properties=species:S:1:pos:R:3:forces:R:3:dft_forces:R:3 energy=-1046.2400405514134 free_energy=-1046.2400405514134 dft_energy=-1046.2400405514134 pbc="F F F"
C        0.00000000       0.00000000      -0.12500000      -0.00000000      -0.00000000       1.60453644      -0.00000000      -0.00000000       1.60453644
H        0.00000000       0.00000000       1.12500000      -0.00000000      -0.00000000      -1.60453644      -0.00000000      -0.00000000      -1.60453644
2
Properties=species:S:1:pos:R:3:forces:R:3:dft_forces:R:3 energy=-1045.993226659977 free_energy=-1045.993226659977 dft_energy=-1045.993226659977 pbc="F F F"
C        0.00000000       0.00000000      -0.18125000      -0.00000000      -0.00000000       2.65203629      -0.00000000      -0.00000000       2.65203629
H        0.00000000       0.00000000       1.18125000      -0.00000000      -0.00000000      -2.65203629      -0.00000000      -0.00000000      -2.65203629
2
Properties=species:S:1:pos:R:3:forces:R:3:dft_forces:R:3 energy=-1045.665148031259 free_energy=-1045.665148031259 dft_energy=-1045.665148031259 pbc="F F F"
C        0.00000000       0.00000000      -0.23750000      -0.00000000      -0.00000000       3.11413820      -0.00000000      -0.00000000       3.11413820
H        0.00000000       0.00000000       1.23750000      -0.00000000      -0.00000000      -3.11413820      -0.00000000      -0.00000000      -3.11413820
2
Properties=species:S:1:pos:R:3:forces:R:3:dft_forces:R:3 energy=-1045.3035918747187 free_energy=-1045.3035918747187 dft_energy=-1045.3035918747187 pbc="F F F"
C        0.00000000       0.00000000      -0.29375000      -0.00000000      -0.00000000       3.26394308      -0.00000000      -0.00000000       3.26394308
H        0.00000000       0.00000000       1.29375000      -0.00000000      -0.00000000      -3.26394308      -0.00000000      -0.00000000      -3.26394308
2
Properties=species:S:1:pos:R:3:forces:R:3:dft_forces:R:3 energy=-1044.9363650603252 free_energy=-1044.9363650603252 dft_energy=-1044.9363650603252 pbc="F F F"
C        0.00000000       0.00000000      -0.35000000      -0.00000000      -0.00000000       3.24763564      -0.00000000      -0.00000000       3.24763564
H        0.00000000       0.00000000       1.35000000      -0.00000000      -0.00000000      -3.24763564      -0.00000000      -0.00000000      -3.24763564
2
Properties=species:S:1:pos:R:3:forces:R:3:dft_forces:R:3 energy=-1044.5754103290553 free_energy=-1044.5754103290553 dft_energy=-1044.5754103290553 pbc="F F F"
C        0.00000000       0.00000000      -0.40625000      -0.00000000      -0.00000000       3.13870716      -0.00000000      -0.00000000       3.13870716
H        0.00000000       0.00000000       1.40625000      -0.00000000      -0.00000000      -3.13870716      -0.00000000      -0.00000000      -3.13870716
2
Properties=species:S:1:pos:R:3:forces:R:3:dft_forces:R:3 energy=-1044.2312729973612 free_energy=-1044.2312729973612 dft_energy=-1044.2312729973612 pbc="F F F"
C        0.00000000       0.00000000      -0.46250000      -0.00000000      -0.00000000       2.97862167      -0.00000000      -0.00000000       2.97862167
H        0.00000000       0.00000000       1.46250000      -0.00000000      -0.00000000      -2.97862167      -0.00000000      -0.00000000      -2.97862167
2
Properties=species:S:1:pos:R:3:forces:R:3:dft_forces:R:3 energy=-1043.9055922044415 free_energy=-1043.9055922044415 dft_energy=-1043.9055922044415 pbc="F F F"
C        0.00000000       0.00000000      -0.51875000      -0.00000000      -0.00000000       2.78873662      -0.00000000      -0.00000000       2.78873662
H        0.00000000       0.00000000       1.51875000      -0.00000000      -0.00000000      -2.78873662      -0.00000000      -0.00000000      -2.78873662
2
Properties=species:S:1:pos:R:3:forces:R:3:dft_forces:R:3 energy=-1043.6037764885612 free_energy=-1043.6037764885612 dft_energy=-1043.6037764885612 pbc="F F F"
C        0.00000000       0.00000000      -0.57500000      -0.00000000      -0.00000000       2.57893838      -0.00000000      -0.00000000       2.57893838
H        0.00000000       0.00000000       1.57500000      -0.00000000      -0.00000000      -2.57893838      -0.00000000      -0.00000000      -2.57893838
2
Properties=species:S:1:pos:R:3:forces:R:3:dft_forces:R:3 energy=-1043.325427359565 free_energy=-1043.325427359565 dft_energy=-1043.325427359565 pbc="F F F"
C        0.00000000       0.00000000      -0.63125000      -0.00000000      -0.00000000       2.36524394      -0.00000000      -0.00000000       2.36524394
H        0.00000000       0.00000000       1.63125000      -0.00000000      -0.00000000      -2.36524394      -0.00000000      -0.00000000      -2.36524394
2
Properties=species:S:1:pos:R:3:forces:R:3:dft_forces:R:3 energy=-1043.0714307599553 free_energy=-1043.0714307599553 dft_energy=-1043.0714307599553 pbc="F F F"
C        0.00000000       0.00000000      -0.68750000      -0.00000000      -0.00000000       2.14953819      -0.00000000      -0.00000000       2.14953819
H        0.00000000       0.00000000       1.68750000      -0.00000000      -0.00000000      -2.14953819      -0.00000000      -0.00000000      -2.14953819
2
Properties=species:S:1:pos:R:3:forces:R:3:dft_forces:R:3 energy=-1042.841457893703 free_energy=-1042.841457893703 dft_energy=-1042.841457893703 pbc="F F F"
C        0.00000000       0.00000000      -0.74375000      -0.00000000      -0.00000000       1.94228553      -0.00000000      -0.00000000       1.94228553
H        0.00000000       0.00000000       1.74375000      -0.00000000      -0.00000000      -1.94228553      -0.00000000      -0.00000000      -1.94228553
2
Properties=species:S:1:pos:R:3:forces:R:3:dft_forces:R:3 energy=-1042.6337281451176 free_energy=-1042.6337281451176 dft_energy=-1042.6337281451176 pbc="F F F"
C        0.00000000       0.00000000      -0.80000000      -0.00000000      -0.00000000       1.74809929      -0.00000000      -0.00000000       1.74809929
H        0.00000000       0.00000000       1.80000000      -0.00000000      -0.00000000      -1.74809929      -0.00000000      -0.00000000      -1.74809929
2
Properties=species:S:1:pos:R:3:forces:R:3:dft_forces:R:3 energy=-1042.4478228218359 free_energy=-1042.4478228218359 dft_energy=-1042.4478228218359 pbc="F F F"
C        0.00000000       0.00000000      -0.85625000      -0.00000000      -0.00000000       1.56499159      -0.00000000      -0.00000000       1.56499159
H        0.00000000       0.00000000       1.85625000      -0.00000000      -0.00000000      -1.56499159      -0.00000000      -0.00000000      -1.56499159
2
Properties=species:S:1:pos:R:3:forces:R:3:dft_forces:R:3 energy=-1042.2804757539275 free_energy=-1042.2804757539275 dft_energy=-1042.2804757539275 pbc="F F F"
C        0.00000000       0.00000000      -0.91250000      -0.00000000      -0.00000000       1.40166666      -0.00000000      -0.00000000       1.40166666
H        0.00000000       0.00000000       1.91250000      -0.00000000      -0.00000000      -1.40166666      -0.00000000      -0.00000000      -1.40166666
2
Properties=species:S:1:pos:R:3:forces:R:3:dft_forces:R:3 energy=-1042.1313236137257 free_energy=-1042.1313236137257 dft_energy=-1042.1313236137257 pbc="F F F"
C        0.00000000       0.00000000      -0.96875000      -0.00000000      -0.00000000       1.25272549      -0.00000000      -0.00000000       1.25272549
H        0.00000000       0.00000000       1.96875000      -0.00000000      -0.00000000      -1.25272549      -0.00000000      -0.00000000      -1.25272549
2
Properties=species:S:1:pos:R:3:forces:R:3:dft_forces:R:3 energy=-1041.9980810183408 free_energy=-1041.9980810183408 dft_energy=-1041.9980810183408 pbc="F F F"
C        0.00000000       0.00000000      -1.02500000      -0.00000000      -0.00000000       1.11315671      -0.00000000      -0.00000000       1.11315671
H        0.00000000       0.00000000       2.02500000      -0.00000000      -0.00000000      -1.11315671      -0.00000000      -0.00000000      -1.11315671
2
Properties=species:S:1:pos:R:3:forces:R:3:dft_forces:R:3 energy=-1041.878488933845 free_energy=-1041.878488933845 dft_energy=-1041.878488933845 pbc="F F F"
C        0.00000000       0.00000000      -1.08125000      -0.00000000      -0.00000000       0.99082479      -0.00000000      -0.00000000       0.99082479
H        0.00000000       0.00000000       2.08125000      -0.00000000      -0.00000000      -0.99082479      -0.00000000      -0.00000000      -0.99082479
2
Properties=species:S:1:pos:R:3:forces:R:3:dft_forces:R:3 energy=-1041.7734788428988 free_energy=-1041.7734788428988 dft_energy=-1041.7734788428988 pbc="F F F"
C        0.00000000       0.00000000      -1.13750000      -0.00000000      -0.00000000       0.88174578      -0.00000000      -0.00000000       0.88174578
H        0.00000000       0.00000000       2.13750000      -0.00000000      -0.00000000      -0.88174578      -0.00000000      -0.00000000      -0.88174578
2
Properties=species:S:1:pos:R:3:forces:R:3:dft_forces:R:3 energy=-1041.678467656647 free_energy=-1041.678467656647 dft_energy=-1041.678467656647 pbc="F F F"
C        0.00000000       0.00000000      -1.19375000      -0.00000000      -0.00000000       0.77563251      -0.00000000      -0.00000000       0.77563251
H        0.00000000       0.00000000       2.19375000      -0.00000000      -0.00000000      -0.77563251      -0.00000000      -0.00000000      -0.77563251
2
Properties=species:S:1:pos:R:3:forces:R:3:dft_forces:R:3 energy=-1041.5966734494816 free_energy=-1041.5966734494816 dft_energy=-1041.5966734494816 pbc="F F F"
C        0.00000000       0.00000000      -1.25000000      -0.00000000      -0.00000000       0.68114429      -0.00000000      -0.00000000       0.68114429
H        0.00000000       0.00000000       2.25000000      -0.00000000      -0.00000000      -0.68114429      -0.00000000      -0.00000000      -0.68114429
