2
Properties=species:S:1:pos:R:3:dft_forces:R:3:forces:R:3 dft_energy=-3063.5942778805434 energy=-2720.400517856665 pbc="F F F"
C        0.00000000       0.00000000       0.10000000      -0.00000000      -0.00000000    -152.80912375      -0.00000000      -0.00000000      12.87018420
O        0.00000000       0.00000000       0.90000000      -0.00000000      -0.00000000     152.80912375      -0.00000000      -0.00000000     -12.87018420
2
Properties=species:S:1:pos:R:3:dft_forces:R:3:forces:R:3 dft_energy=-3073.978653488667 energy=-2720.400517856665 pbc="F F F"
C        0.00000000       0.00000000       0.05344828      -0.00000000      -0.00000000     -77.52007642      -0.00000000      -0.00000000      12.87018420
O        0.00000000       0.00000000       0.94655172      -0.00000000      -0.00000000      77.52007642      -0.00000000      -0.00000000     -12.87018420
2
Properties=species:S:1:pos:R:3:dft_forces:R:3:forces:R:3 dft_energy=-3079.049787668433 energy=-2720.400517856665 pbc="F F F"
C        0.00000000       0.00000000       0.00689655      -0.00000000      -0.00000000     -35.49717407      -0.00000000      -0.00000000      12.87018420
O        0.00000000       0.00000000       0.99310345      -0.00000000      -0.00000000      35.49717407      -0.00000000      -0.00000000     -12.87018420
2
Properties=species:S:1:pos:R:3:dft_forces:R:3:forces:R:3 dft_energy=-3081.165752155751 energy=-2720.400517856665 pbc="F F F"
C        0.00000000       0.00000000      -0.03965517      -0.00000000      -0.00000000     -12.27479947      -0.00000000      -0.00000000      12.87018420
O        0.00000000       0.00000000       1.03965517      -0.00000000      -0.00000000      12.27479947      -0.00000000      -0.00000000     -12.87018420
2
Properties=species:S:1:pos:R:3:dft_forces:R:3:forces:R:3 dft_energy=-3081.6644745634767 energy=-2720.400517856665 pbc="F F F"
C        0.00000000       0.00000000      -0.08620690      -0.00000000      -0.00000000       0.23799723      -0.00000000      -0.00000000      12.87018420
O        0.00000000       0.00000000       1.08620690      -0.00000000      -0.00000000      -0.23799723      -0.00000000      -0.00000000     -12.87018420
2
Properties=species:S:1:pos:R:3:dft_forces:R:3:forces:R:3 dft_energy=-3081.308993615579 energy=-2720.400517856665 pbc="F F F"
C        0.00000000       0.00000000      -0.13275862      -0.00000000      -0.00000000       6.65048453      -0.00000000      -0.00000000      12.87018420
O        0.00000000       0.00000000       1.13275862      -0.00000000      -0.00000000      -6.65048453      -0.00000000      -0.00000000     -12.87018420
2
Properties=species:S:1:pos:R:3:dft_forces:R:3:forces:R:3 dft_energy=-3080.5316941189017 energy=-2720.400517856665 pbc="F F F"
C        0.00000000       0.00000000      -0.17931034      -0.00000000      -0.00000000       9.62404178      -0.00000000      -0.00000000      12.87018420
O        0.00000000       0.00000000       1.17931034      -0.00000000      -0.00000000      -9.62404178      -0.00000000      -0.00000000     -12.87018420
2
Properties=species:S:1:pos:R:3:dft_forces:R:3:forces:R:3 dft_energy=-3079.574985914963 energy=-2720.400517856665 pbc="F F F"
C        0.00000000       0.00000000      -0.22586207      -0.00000000      -0.00000000      10.69853983      -0.00000000      -0.00000000      12.87018420
O        0.00000000       0.00000000       1.22586207      -0.00000000      -0.00000000     -10.69853983      -0.00000000      -0.00000000     -12.87018420
2
Properties=species:S:1:pos:R:3:dft_forces:R:3:forces:R:3 dft_energy=-3078.570452914139 energy=-2720.400517856665 pbc="F F F"
C        0.00000000       0.00000000      -0.27241379      -0.00000000      -0.00000000      10.76348554      -0.00000000      -0.00000000      12.87018420
O        0.00000000       0.00000000       1.27241379      -0.00000000      -0.00000000     -10.76348554      -0.00000000      -0.00000000     -12.87018420
2
Properties=species:S:1:pos:R:3:dft_forces:R:3:forces:R:3 dft_energy=-3077.585916599744 energy=-2720.400517856665 pbc="F F F"
C        0.00000000       0.00000000      -0.31896552      -0.00000000      -0.00000000      10.32965309      -0.00000000      -0.00000000      12.87018420
O        0.00000000       0.00000000       1.31896552      -0.00000000      -0.00000000     -10.32965309      -0.00000000      -0.00000000     -12.87018420
2
Properties=species:S:1:pos:R:3:dft_forces:R:3:forces:R:3 dft_energy=-3076.6536180670205 energy=-2720.400517856665 pbc="F F F"
C        0.00000000       0.00000000      -0.36551724      -0.00000000      -0.00000000       9.67560378      -0.00000000      -0.00000000      12.87018420
O        0.00000000       0.00000000       1.36551724      -0.00000000      -0.00000000      -9.67560378      -0.00000000      -0.00000000     -12.87018420
2
Properties=species:S:1:pos:R:3:dft_forces:R:3:forces:R:3 dft_energy=-3075.786768605681 energy=-2720.400517856665 pbc="F F F"
C        0.00000000       0.00000000      -0.41206897      -0.00000000      -0.00000000       8.93934289      -0.00000000      -0.00000000      12.87018420
O        0.00000000       0.00000000       1.41206897      -0.00000000      -0.00000000      -8.93934289      -0.00000000      -0.00000000     -12.87018420
2
Properties=species:S:1:pos:R:3:dft_forces:R:3:forces:R:3 dft_energy=-3074.9896441075093 energy=-2720.400517856665 pbc="F F F"
C        0.00000000       0.00000000      -0.45862069      -0.00000000      -0.00000000       8.18478718      -0.00000000      -0.00000000      12.87018420
O        0.00000000       0.00000000       1.45862069      -0.00000000      -0.00000000      -8.18478718      -0.00000000      -0.00000000     -12.87018420
2
Properties=species:S:1:pos:R:3:dft_forces:R:3:forces:R:3 dft_energy=-3074.2625621977354 energy=-2720.400517856665 pbc="F F F"
C        0.00000000       0.00000000      -0.50517241      -0.00000000      -0.00000000       7.43554117      -0.00000000      -0.00000000      12.87018420
O        0.00000000       0.00000000       1.50517241      -0.00000000      -0.00000000      -7.43554117      -0.00000000      -0.00000000     -12.87018420
2
Properties=species:S:1:pos:R:3:dft_forces:R:3:forces:R:3 dft_energy=-3073.6044074445017 energy=-2720.400517856665 pbc="F F F"
C        0.00000000       0.00000000      -0.55172414      -0.00000000      -0.00000000       6.70744808      -0.00000000      -0.00000000      12.87018420
O        0.00000000       0.00000000       1.55172414      -0.00000000      -0.00000000      -6.70744808      -0.00000000      -0.00000000     -12.87018420
2
Properties=species:S:1:pos:R:3:dft_forces:R:3:forces:R:3 dft_energy=-3073.012677840376 energy=-2720.400517856665 pbc="F F F"
C        0.00000000       0.00000000      -0.59827586      -0.00000000      -0.00000000       6.00975575      -0.00000000      -0.00000000      12.87018420
O        0.00000000       0.00000000       1.59827586      -0.00000000      -0.00000000      -6.00975575      -0.00000000      -0.00000000     -12.87018420
2
Properties=species:S:1:pos:R:3:dft_forces:R:3:forces:R:3 dft_energy=-3072.48410912213 energy=-2720.400517856665 pbc="F F F"
C        0.00000000       0.00000000      -0.64482759      -0.00000000      -0.00000000       5.35422528      -0.00000000      -0.00000000      12.87018420
O        0.00000000       0.00000000       1.64482759      -0.00000000      -0.00000000      -5.35422528      -0.00000000      -0.00000000     -12.87018420
