2
Properties=species:S:1:pos:R:3:forces:R:3:dft_forces:R:3 energy=-3063.5942778805434 free_energy=-3063.5942778805434 dft_energy=-3063.5942778805434 pbc="F F F"
C        0.00000000       0.00000000       0.10000000      -0.00000000      -0.00000000    -152.80912375      -0.00000000      -0.00000000    -152.80912375
O        0.00000000       0.00000000       0.90000000      -0.00000000      -0.00000000     152.80912375      -0.00000000      -0.00000000     152.80912375
2
Properties=species:S:1:pos:R:3:forces:R:3:dft_forces:R:3 energy=-3075.3745570317037 free_energy=-3075.3745570317037 dft_energy=-3075.3745570317037 pbc="F F F"
C        0.00000000       0.00000000       0.04375000      -0.00000000      -0.00000000     -66.63238402      -0.00000000      -0.00000000     -66.63238402
O        0.00000000       0.00000000       0.95625000      -0.00000000      -0.00000000      66.63238402      -0.00000000      -0.00000000      66.63238402
2
Properties=species:S:1:pos:R:3:forces:R:3:dft_forces:R:3 energy=-3080.196747637388 free_energy=-3080.196747637388 dft_energy=-3080.196747637388 pbc="F F F"
C        0.00000000       0.00000000      -0.01250000      -0.00000000      -0.00000000     -24.10611575      -0.00000000      -0.00000000     -24.10611575
O        0.00000000       0.00000000       1.01250000      -0.00000000      -0.00000000      24.10611575      -0.00000000      -0.00000000      24.10611575
2
Properties=species:S:1:pos:R:3:forces:R:3:dft_forces:R:3 energy=-3081.6094274367338 free_energy=-3081.6094274367338 dft_energy=-3081.6094274367338 pbc="F F F"
C        0.00000000       0.00000000      -0.06875000      -0.00000000      -0.00000000      -3.54707368      -0.00000000      -0.00000000      -3.54707368
O        0.00000000       0.00000000       1.06875000      -0.00000000      -0.00000000       3.54707368      -0.00000000      -0.00000000       3.54707368
2
Properties=species:S:1:pos:R:3:forces:R:3:dft_forces:R:3 energy=-3081.4063094421617 free_energy=-3081.4063094421617 dft_energy=-3081.4063094421617 pbc="F F F"
C        0.00000000       0.00000000      -0.12500000      -0.00000000      -0.00000000       5.87459811      -0.00000000      -0.00000000       5.87459811
O        0.00000000       0.00000000       1.12500000      -0.00000000      -0.00000000      -5.87459811      -0.00000000      -0.00000000      -5.87459811
2
Properties=species:S:1:pos:R:3:forces:R:3:dft_forces:R:3 energy=-3080.494208551326 free_energy=-3080.494208551326 dft_energy=-3080.494208551326 pbc="F F F"
C        0.00000000       0.00000000      -0.18125000      -0.00000000      -0.00000000       9.69882808      -0.00000000      -0.00000000       9.69882808
O        0.00000000       0.00000000       1.18125000      -0.00000000      -0.00000000      -9.69882808      -0.00000000      -0.00000000      -9.69882808
2
Properties=species:S:1:pos:R:3:forces:R:3:dft_forces:R:3 energy=-3079.3248621391226 free_energy=-3079.3248621391226 dft_energy=-3079.3248621391226 pbc="F F F"
C        0.00000000       0.00000000      -0.23750000      -0.00000000      -0.00000000      10.78382094      -0.00000000      -0.00000000      10.78382094
O        0.00000000       0.00000000       1.23750000      -0.00000000      -0.00000000     -10.78382094      -0.00000000      -0.00000000     -10.78382094
2
Properties=species:S:1:pos:R:3:forces:R:3:dft_forces:R:3 energy=-3078.114197066091 free_energy=-3078.114197066091 dft_energy=-3078.114197066091 pbc="F F F"
C        0.00000000       0.00000000      -0.29375000      -0.00000000      -0.00000000      10.60581042      -0.00000000      -0.00000000      10.60581042
O        0.00000000       0.00000000       1.29375000      -0.00000000      -0.00000000     -10.60581042      -0.00000000      -0.00000000     -10.60581042
2
Properties=species:S:1:pos:R:3:forces:R:3:dft_forces:R:3 energy=-3076.957532647558 free_energy=-3076.957532647558 dft_energy=-3076.957532647558 pbc="F F F"
C        0.00000000       0.00000000      -0.35000000      -0.00000000      -0.00000000       9.90688584      -0.00000000      -0.00000000       9.90688584
O        0.00000000       0.00000000       1.35000000      -0.00000000      -0.00000000      -9.90688584      -0.00000000      -0.00000000      -9.90688584
2
Properties=species:S:1:pos:R:3:forces:R:3:dft_forces:R:3 energy=-3075.8913500476824 free_energy=-3075.8913500476824 dft_energy=-3075.8913500476824 pbc="F F F"
C        0.00000000       0.00000000      -0.40625000      -0.00000000      -0.00000000       9.03325757      -0.00000000      -0.00000000       9.03325757
O        0.00000000       0.00000000       1.40625000      -0.00000000      -0.00000000      -9.03325757      -0.00000000      -0.00000000      -9.03325757
2
Properties=species:S:1:pos:R:3:forces:R:3:dft_forces:R:3 energy=-3074.926367543116 free_energy=-3074.926367543116 dft_energy=-3074.926367543116 pbc="F F F"
C        0.00000000       0.00000000      -0.46250000      -0.00000000      -0.00000000       8.12200585      -0.00000000      -0.00000000       8.12200585
O        0.00000000       0.00000000       1.46250000      -0.00000000      -0.00000000      -8.12200585      -0.00000000      -0.00000000      -8.12200585
2
Properties=species:S:1:pos:R:3:forces:R:3:dft_forces:R:3 energy=-3074.0635854086263 free_energy=-3074.0635854086263 dft_energy=-3074.0635854086263 pbc="F F F"
C        0.00000000       0.00000000      -0.51875000      -0.00000000      -0.00000000       7.22041309      -0.00000000      -0.00000000       7.22041309
O        0.00000000       0.00000000       1.51875000      -0.00000000      -0.00000000      -7.22041309      -0.00000000      -0.00000000      -7.22041309
2
Properties=species:S:1:pos:R:3:forces:R:3:dft_forces:R:3 energy=-3073.3004309829325 free_energy=-3073.3004309829325 dft_energy=-3073.3004309829325 pbc="F F F"
C        0.00000000       0.00000000      -0.57500000      -0.00000000      -0.00000000       6.35412552      -0.00000000      -0.00000000       6.35412552
O        0.00000000       0.00000000       1.57500000      -0.00000000      -0.00000000      -6.35412552      -0.00000000      -0.00000000      -6.35412552
2
Properties=species:S:1:pos:R:3:forces:R:3:dft_forces:R:3 energy=-3072.632033649166 free_energy=-3072.632033649166 dft_energy=-3072.632033649166 pbc="F F F"
C        0.00000000       0.00000000      -0.63125000      -0.00000000      -0.00000000       5.54057866      -0.00000000      -0.00000000       5.54057866
O        0.00000000       0.00000000       1.63125000      -0.00000000      -0.00000000      -5.54057866      -0.00000000      -0.00000000      -5.54057866
2
Properties=species:S:1:pos:R:3:forces:R:3:dft_forces:R:3 energy=-3072.051088891462 free_energy=-3072.051088891462 dft_energy=-3072.051088891462 pbc="F F F"
C        0.00000000       0.00000000      -0.68750000      -0.00000000      -0.00000000       4.79933807      -0.00000000      -0.00000000       4.79933807
O        0.00000000       0.00000000       1.68750000      -0.00000000      -0.00000000      -4.79933807      -0.00000000      -0.00000000      -4.79933807
