 5
 smiles=C config_type=methane_mol dft_energy=-1100.31472551 pop_gap_energy=-1100.3143351276872 cutoff=6.00000000 nneightol=1.20000000 pbc="T T T" Lattice="50.00000000       0.00000000       0.00000000       0.00000000      50.00000000       0.00000000       0.00000000       0.00000000      50.00000000" Properties=species:S:1:pos:R:3:dft_forces:R:3:atom_gaussian_weight:R:1:Z:I:1:map_shift:I:3:n_neighb:I:1:pop_gap_forces:R:3
 C              -0.00288992      0.00673045      0.01609493     -1.37149324     -1.08622968     -0.73403730      1.00000000       6       0       0       0       4     -1.33999422     -1.05772303     -0.73890395
 H              -0.62937464      0.91258898     -0.15163222     -0.33038031     -0.61799166      0.43275893      1.00000000       1       0       0       0       4     -0.31709894     -0.61895223      0.44163811
 H              -0.30951985     -0.87622563     -0.61708821     -0.55474973      0.67072732      0.43682850      1.00000000       1       0       0       0       4     -0.55442178      0.64489504      0.43661722
 H               0.07177995     -0.37169216      1.05611860      0.20354094      0.58877819     -0.15657131      1.00000000       1       0       0       0       4      0.19200771      0.58797490     -0.17177131
 H               0.89847992      0.25646142     -0.47813079      2.05378971      0.44591403      0.02161661      1.00000000       1       0       0       0       4      2.01950723      0.44380532      0.03241994
 5
 smiles=C config_type=methane_mol dft_energy=-1100.37353933 pop_gap_energy=-1100.3761231440410 cutoff=6.00000000 nneightol=1.20000000 pbc="T T T" Lattice="50.00000000       0.00000000       0.00000000       0.00000000      50.00000000       0.00000000       0.00000000       0.00000000      50.00000000" Properties=species:S:1:pos:R:3:dft_forces:R:3:atom_gaussian_weight:R:1:Z:I:1:map_shift:I:3:n_neighb:I:1:pop_gap_forces:R:3
 C               0.00578696     -0.00037052     -0.00372074      0.44684051      0.61374569      0.72946267      1.00000000       6       0       0       0       4      0.45478672      0.61639709      0.72691101
 H              -0.64786658      0.88106206     -0.04358991     -0.46329215     -0.07163631     -0.33838006      1.00000000       1       0       0       0       4     -0.43432150     -0.09944176     -0.33510249
 H              -0.37745680     -0.86925254     -0.51170131     -0.52663410     -0.39464390     -1.00066395      1.00000000       1       0       0       0       4     -0.50373256     -0.36168990     -0.97649114
 H              -0.02937903     -0.33627097      1.06154780      0.91225411      0.42764308     -0.22307898      1.00000000       1       0       0       0       4      0.86644378      0.40985182     -0.20445929
 H               0.98266926      0.33020883     -0.46086299     -0.36827016     -0.57381615      0.83215042      1.00000000       1       0       0       0       4     -0.38317644     -0.56511725      0.78914190
 5
 smiles=C config_type=methane_mol dft_energy=-1100.45268357 pop_gap_energy=-1100.4522635646342 cutoff=6.00000000 nneightol=1.20000000 pbc="T T T" Lattice="50.00000000       0.00000000       0.00000000       0.00000000      50.00000000       0.00000000       0.00000000       0.00000000      50.00000000" Properties=species:S:1:pos:R:3:dft_forces:R:3:atom_gaussian_weight:R:1:Z:I:1:map_shift:I:3:n_neighb:I:1:pop_gap_forces:R:3
 C               0.00437471      0.00030727      0.00004827      0.43078090      0.73028587      0.75886009      1.00000000       6       0       0       0       4      0.44137835      0.72988911      0.75977322
 H              -0.73668638      0.80485520     -0.09195331      0.29700206      0.61623207      0.03900591      1.00000000       1       0       0       0       4      0.28410760      0.62232859      0.04462808
 H              -0.42093262     -0.77488061     -0.59332718     -0.29115958     -1.44323099     -0.56952949      1.00000000       1       0       0       0       4     -0.29126130     -1.44729931     -0.57219471
 H               0.08554601     -0.27800844      1.07092798     -0.06992156     -0.14790936     -0.24673857      1.00000000       1       0       0       0       4     -0.06693872     -0.14197704     -0.25910551
 H               1.01686900      0.24570446     -0.38516632     -0.36712752      0.24658659      0.01811936      1.00000000       1       0       0       0       4     -0.36728593      0.23705865      0.02689892
 5
 smiles=C config_type=methane_mol dft_energy=-1100.39481490 pop_gap_energy=-1100.3954320593944 cutoff=6.00000000 nneightol=1.20000000 pbc="T T T" Lattice="50.00000000       0.00000000       0.00000000       0.00000000      50.00000000       0.00000000       0.00000000       0.00000000      50.00000000" Properties=species:S:1:pos:R:3:dft_forces:R:3:atom_gaussian_weight:R:1:Z:I:1:map_shift:I:3:n_neighb:I:1:pop_gap_forces:R:3
 C              -0.00098089      0.01234526     -0.01788130     -0.16325844     -2.25365090      1.60175768      1.00000000       6       0       0       0       4     -0.16339710     -2.25941122      1.54818101
 H              -0.67821785      0.85284061     -0.03508944     -0.49916047      0.56067198     -0.24924204      1.00000000       1       0       0       0       4     -0.48960800      0.54952607     -0.24149917
 H              -0.42143550     -0.92393226     -0.49669817      0.42517762      1.05670403     -0.32717635      1.00000000       1       0       0       0       4      0.42338336      1.07020106     -0.31865435
 H               0.09316939     -0.34817742      1.04687516     -0.10976605      0.55242038     -0.35290745      1.00000000       1       0       0       0       4     -0.11150609      0.54935992     -0.32192708
 H               1.01509919      0.27349586     -0.30095512      0.34590758      0.08429523     -0.67182308      1.00000000       1       0       0       0       4      0.34112783      0.09032417     -0.66610041
 5
 smiles=C config_type=methane_mol dft_energy=-1100.41314895 pop_gap_energy=-1100.4133769907835 cutoff=6.00000000 nneightol=1.20000000 pbc="T T T" Lattice="50.00000000       0.00000000       0.00000000       0.00000000      50.00000000       0.00000000       0.00000000       0.00000000      50.00000000" Properties=species:S:1:pos:R:3:dft_forces:R:3:atom_gaussian_weight:R:1:Z:I:1:map_shift:I:3:n_neighb:I:1:pop_gap_forces:R:3
 C              -0.00768724     -0.00192530      0.00835536      2.26908460     -0.17397645     -1.90357639      1.00000000       6       0       0       0       4      2.22259544     -0.19286499     -1.89939651
 H              -0.62406417      0.85727604     -0.11003524     -1.13823072      0.99593798      0.02316377      1.00000000       1       0       0       0       4     -1.13130566      1.00085415      0.01926523
 H              -0.38430313     -0.84957796     -0.58689505     -0.09206412      0.04416547     -0.08777610      1.00000000       1       0       0       0       4     -0.08032903      0.05238081     -0.08986226
 H               0.07828876     -0.30701365      1.02954573      0.19156573     -0.16894827      1.18452426      1.00000000       1       0       0       0       4      0.20241770     -0.16905323      1.19326733
 H               1.01860447      0.32359103     -0.43112011     -1.22897790     -0.69414375      0.78355296      1.00000000       1       0       0       0       4     -1.21337846     -0.69131674      0.77672620
 5
 smiles=C config_type=methane_mol dft_energy=-1100.43105553 pop_gap_energy=-1100.4304331787439 cutoff=6.00000000 nneightol=1.20000000 pbc="T T T" Lattice="50.00000000       0.00000000       0.00000000       0.00000000      50.00000000       0.00000000       0.00000000       0.00000000      50.00000000" Properties=species:S:1:pos:R:3:dft_forces:R:3:atom_gaussian_weight:R:1:Z:I:1:map_shift:I:3:n_neighb:I:1:pop_gap_forces:R:3
 C              -0.00117367      0.00926464      0.00079938      0.12014289     -0.45854362     -1.00400145      1.00000000       6       0       0       0       4      0.12783402     -0.46138015     -0.98999415
 H              -0.70465468      0.88912998     -0.10504390      0.53881687     -0.76794419      0.23278345      1.00000000       1       0       0       0       4      0.54816023     -0.77701334      0.23479919
 H              -0.40545457     -0.90541479     -0.54015464      0.32959226      1.02560671     -0.04090114      1.00000000       1       0       0       0       4      0.31777153      1.01546233     -0.06139137
 H               0.08604397     -0.37170183      1.02362319      0.02997585      0.47308259      0.53276110      1.00000000       1       0       0       0       4      0.02841547      0.48674327      0.53777574
 H               1.03497696      0.27892047     -0.38689187     -1.01851174     -0.26936482      0.28064021      1.00000000       1       0       0       0       4     -1.02218125     -0.26381211      0.27881059
 5
 smiles=C config_type=methane_mol dft_energy=-1100.42353369 pop_gap_energy=-1100.4224516529559 cutoff=6.00000000 nneightol=1.20000000 pbc="T T T" Lattice="50.00000000       0.00000000       0.00000000       0.00000000      50.00000000       0.00000000       0.00000000       0.00000000      50.00000000" Properties=species:S:1:pos:R:3:dft_forces:R:3:atom_gaussian_weight:R:1:Z:I:1:map_shift:I:3:n_neighb:I:1:pop_gap_forces:R:3
 C               0.00373279      0.00197805      0.00109446     -1.49953839     -0.36412567      1.56266553      1.00000000       6       0       0       0       4     -1.48724428     -0.36270084      1.57655834
 H              -0.67171814      0.84846579     -0.12919714     -0.33866784      0.36323219      0.30063631      1.00000000       1       0       0       0       4     -0.34826307      0.37502272      0.30148695
 H              -0.39870977     -0.81434239     -0.56676281     -0.32409422     -0.90705510     -0.65194759      1.00000000       1       0       0       0       4     -0.34139615     -0.93217234     -0.65417019
 H               0.08957594     -0.33392018      1.06566973     -0.07200656      0.41284579     -0.43039696      1.00000000       1       0       0       0       4     -0.07237674      0.41345296     -0.44947655
 H               0.93329969      0.27755926     -0.38169599      2.23475893      0.49927093     -0.78184148      1.00000000       1       0       0       0       4      2.24928025      0.50639750     -0.77439855
 5
 smiles=C config_type=methane_mol dft_energy=-1100.40530886 pop_gap_energy=-1100.4052197203564 cutoff=6.00000000 nneightol=1.20000000 pbc="T T T" Lattice="50.00000000       0.00000000       0.00000000       0.00000000      50.00000000       0.00000000       0.00000000       0.00000000      50.00000000" Properties=species:S:1:pos:R:3:dft_forces:R:3:atom_gaussian_weight:R:1:Z:I:1:map_shift:I:3:n_neighb:I:1:pop_gap_forces:R:3
 C              -0.00218826      0.00226893     -0.01346459      0.04711858      0.38147437      1.78198005      1.00000000       6       0       0       0       4      0.04475121      0.39124438      1.75236983
 H              -0.71831642      0.88505646     -0.08828656      0.78542395     -0.80106568      0.18764952      1.00000000       1       0       0       0       4      0.79480011     -0.81009620      0.19051523
 H              -0.43860800     -0.86681936     -0.52844725      0.30789640      0.03655895     -0.43751550      1.00000000       1       0       0       0       4      0.30546992      0.03632750     -0.44153183
 H               0.14119352     -0.33324780      1.07547630     -0.56527794      0.56623178     -0.96773769      1.00000000       1       0       0       0       4     -0.56848006      0.55824973     -0.92956164
 H               1.03873317      0.28930603     -0.29724131     -0.57650442     -0.18033350     -0.56376314      1.00000000       1       0       0       0       4     -0.57654117     -0.17572541     -0.57179160
 5
 smiles=C config_type=methane_mol dft_energy=-1100.40032143 pop_gap_energy=-1100.4006497724522 cutoff=6.00000000 nneightol=1.20000000 pbc="T T T" Lattice="50.00000000       0.00000000       0.00000000       0.00000000      50.00000000       0.00000000       0.00000000       0.00000000      50.00000000" Properties=species:S:1:pos:R:3:dft_forces:R:3:atom_gaussian_weight:R:1:Z:I:1:map_shift:I:3:n_neighb:I:1:pop_gap_forces:R:3
 C              -0.00935496     -0.00238174     -0.00348232      2.23836692      1.65072102      1.45758051      1.00000000       6       0       0       0       4      2.21239730      1.63873603      1.45720010
 H              -0.66435400      0.85483631     -0.12005490     -0.41391534      0.49147373      0.26253069      1.00000000       1       0       0       0       4     -0.39917267      0.48649980      0.25721897
 H              -0.39088150     -0.80071812     -0.54109379     -0.80831063     -2.10917928     -1.54855050      1.00000000       1       0       0       0       4     -0.79737645     -2.09494519     -1.53891048
 H               0.14504492     -0.31741361      1.04637155     -0.45227830      0.21189000      0.04875757      1.00000000       1       0       0       0       4     -0.44349831      0.21113587      0.03950148
 H               1.01859046      0.29300813     -0.34267085     -0.56387964     -0.24125254     -0.22122499      1.00000000       1       0       0       0       4     -0.57234987     -0.24142651     -0.21501007
 5
 smiles=C config_type=methane_mol dft_energy=-1100.48757164 pop_gap_energy=-1100.4874684558565 cutoff=6.00000000 nneightol=1.20000000 pbc="T T T" Lattice="50.00000000       0.00000000       0.00000000       0.00000000      50.00000000       0.00000000       0.00000000       0.00000000      50.00000000" Properties=species:S:1:pos:R:3:dft_forces:R:3:atom_gaussian_weight:R:1:Z:I:1:map_shift:I:3:n_neighb:I:1:pop_gap_forces:R:3
 C               0.00186283      0.00251492     -0.00257258      1.05578381     -0.53333020      0.61896582      1.00000000       6       0       0       0       4      1.06634870     -0.53544353      0.61460026
 H              -0.67962061      0.83499477     -0.07565168     -0.50953230      0.74730619     -0.11513957      1.00000000       1       0       0       0       4     -0.51263815      0.75783207     -0.11500662
 H              -0.41361586     -0.84387152     -0.55996791      0.01223168     -0.18344267     -0.31907963      1.00000000       1       0       0       0       4      0.01185940     -0.19129587     -0.32486593
 H               0.04996968     -0.31615455      1.07592730      0.24302596      0.29465298     -0.61399949      1.00000000       1       0       0       0       4      0.24184782      0.29192302     -0.60299372
 H               1.01799372      0.29639659     -0.40859605     -0.80106377     -0.32212121      0.42894423      1.00000000       1       0       0       0       4     -0.80741777     -0.32301569      0.42826601
 5
 smiles=C config_type=methane_mol dft_energy=-1100.46934306 pop_gap_energy=-1100.4690373273177 cutoff=6.00000000 nneightol=1.20000000 pbc="T T T" Lattice="50.00000000       0.00000000       0.00000000       0.00000000      50.00000000       0.00000000       0.00000000       0.00000000      50.00000000" Properties=species:S:1:pos:R:3:dft_forces:R:3:atom_gaussian_weight:R:1:Z:I:1:map_shift:I:3:n_neighb:I:1:pop_gap_forces:R:3
 C               0.00108811      0.00035020      0.00679794      0.27703129     -1.18830789     -1.31938725      1.00000000       6       0       0       0       4      0.28106443     -1.18849797     -1.31665322
 H              -0.65222374      0.83349599     -0.08449930     -1.00722145      1.17550766     -0.17353383      1.00000000       1       0       0       0       4     -1.02098167      1.18518880     -0.17893403
 H              -0.39304212     -0.84300183     -0.61988032      0.08919189      0.34119699      0.48074514      1.00000000       1       0       0       0       4      0.09508253      0.34704690      0.48618856
 H               0.05970637     -0.27530108      1.04576934      0.26232872     -0.37319318      0.83347056      1.00000000       1       0       0       0       4      0.26298520     -0.38271033      0.83471394
 H               0.96951967      0.28196832     -0.42133649      0.37927252      0.04695697      0.17848856      1.00000000       1       0       0       0       4      0.38184951      0.03897259      0.17468476
 5
 smiles=C config_type=methane_mol dft_energy=-1100.36603916 pop_gap_energy=-1100.3674529149239 cutoff=6.00000000 nneightol=1.20000000 pbc="T T T" Lattice="50.00000000       0.00000000       0.00000000       0.00000000      50.00000000       0.00000000       0.00000000       0.00000000      50.00000000" Properties=species:S:1:pos:R:3:dft_forces:R:3:atom_gaussian_weight:R:1:Z:I:1:map_shift:I:3:n_neighb:I:1:pop_gap_forces:R:3
 C              -0.00668480     -0.00443387      0.00854200     -0.37724909      0.32192533     -1.38095385      1.00000000       6       0       0       0       4     -0.39268051      0.31960090     -1.37931472
 H              -0.63242065      0.87526646     -0.18626420     -0.49678721      0.12061953      0.76916480      1.00000000       1       0       0       0       4     -0.49391490      0.10977611      0.73576304
 H              -0.42293134     -0.82696750     -0.59109587      0.26578144     -0.19727757     -0.11033565      1.00000000       1       0       0       0       4      0.26389317     -0.16723642     -0.07775567
 H               0.17523405     -0.31948976      1.00921912     -0.49599770     -0.11728104      1.52986935      1.00000000       1       0       0       0       4     -0.47835119     -0.14573939      1.51403526
 H               0.95670265      0.32535874     -0.33258823      1.10483633     -0.12391303     -0.80799816      1.00000000       1       0       0       0       4      1.10105344     -0.11640120     -0.79272791
 5
 smiles=C config_type=methane_mol dft_energy=-1100.43861588 pop_gap_energy=-1100.4383302044837 cutoff=6.00000000 nneightol=1.20000000 pbc="T T T" Lattice="50.00000000       0.00000000       0.00000000       0.00000000      50.00000000       0.00000000       0.00000000       0.00000000      50.00000000" Properties=species:S:1:pos:R:3:dft_forces:R:3:atom_gaussian_weight:R:1:Z:I:1:map_shift:I:3:n_neighb:I:1:pop_gap_forces:R:3
 C              -0.00401474      0.00781710     -0.00471289      1.08537459     -0.88445831     -0.41280088      1.00000000       6       0       0       0       4      1.09734926     -0.89519911     -0.41458614
 H              -0.70436546      0.84120388     -0.00385507     -0.12735439      0.49406841     -0.65674332      1.00000000       1       0       0       0       4     -0.14396201      0.50030430     -0.65740119
 H              -0.35244066     -0.87520867     -0.58885336     -0.29401102      0.39735276      0.22267337      1.00000000       1       0       0       0       4     -0.29215567      0.40969854      0.23012983
 H               0.06240781     -0.27061280      1.04692627      0.26369765     -0.39177933      0.46381208      1.00000000       1       0       0       0       4      0.26713135     -0.39099733      0.45332546
 H               1.03916355      0.21280127     -0.39700038     -0.92758237      0.38481627      0.38237909      1.00000000       1       0       0       0       4     -0.92836293      0.37619360      0.38853203
 5
 smiles=C config_type=methane_mol dft_energy=-1100.45190116 pop_gap_energy=-1100.4512041488920 cutoff=6.00000000 nneightol=1.20000000 pbc="T T T" Lattice="50.00000000       0.00000000       0.00000000       0.00000000      50.00000000       0.00000000       0.00000000       0.00000000      50.00000000" Properties=species:S:1:pos:R:3:dft_forces:R:3:atom_gaussian_weight:R:1:Z:I:1:map_shift:I:3:n_neighb:I:1:pop_gap_forces:R:3
 C               0.00625553     -0.00387299      0.00357912     -0.90731367      0.78775707      0.98139313      1.00000000       6       0       0       0       4     -0.90439560      0.77263889      0.99345668
 H              -0.72685347      0.84233782     -0.11329340      0.66865722     -0.19866558      0.24026156      1.00000000       1       0       0       0       4      0.66831004     -0.18881760      0.24484593
 H              -0.41366612     -0.77888545     -0.62715134     -0.13824654     -0.92511105     -0.02427118      1.00000000       1       0       0       0       4     -0.14335216     -0.93647304     -0.02869308
 H               0.08471542     -0.27761994      1.10640714     -0.09522536      0.04245318     -1.16313537      1.00000000       1       0       0       0       4     -0.09582015      0.05077899     -1.18005819
 H               0.97818951      0.26165091     -0.40755650      0.47175861      0.29602570     -0.03414084      1.00000000       1       0       0       0       4      0.47525787      0.30187275     -0.02955134
 5
 smiles=C config_type=methane_mol dft_energy=-1100.45603888 pop_gap_energy=-1100.4559225428939 cutoff=6.00000000 nneightol=1.20000000 pbc="T T T" Lattice="50.00000000       0.00000000       0.00000000       0.00000000      50.00000000       0.00000000       0.00000000       0.00000000      50.00000000" Properties=species:S:1:pos:R:3:dft_forces:R:3:atom_gaussian_weight:R:1:Z:I:1:map_shift:I:3:n_neighb:I:1:pop_gap_forces:R:3
 C               0.00154073      0.00147557      0.00408835      0.53582784     -0.11977820     -0.35271019      1.00000000       6       0       0       0       4      0.54146760     -0.11978556     -0.35330034
 H              -0.73345726      0.80446306     -0.08529806      0.18545520      0.72713102     -0.06556358      1.00000000       1       0       0       0       4      0.18061321      0.72552036     -0.06090576
 H              -0.40754711     -0.79093991     -0.63655874      0.00356552     -0.58852594      0.30523474      1.00000000       1       0       0       0       4      0.00763502     -0.58482931      0.30532653
 H               0.09616638     -0.25705966      1.07151622     -0.11045760     -0.37498611     -0.07591537      1.00000000       1       0       0       0       4     -0.10818535     -0.36880888     -0.08827429
 H               1.02340394      0.22728641     -0.39731961     -0.61507206      0.35780367      0.18940312      1.00000000       1       0       0       0       4     -0.62153048      0.34790339      0.19715386
 5
 smiles=C config_type=methane_mol dft_energy=-1100.49286034 pop_gap_energy=-1100.4928306215238 cutoff=6.00000000 nneightol=1.20000000 pbc="T T T" Lattice="50.00000000       0.00000000       0.00000000       0.00000000      50.00000000       0.00000000       0.00000000       0.00000000      50.00000000" Properties=species:S:1:pos:R:3:dft_forces:R:3:atom_gaussian_weight:R:1:Z:I:1:map_shift:I:3:n_neighb:I:1:pop_gap_forces:R:3
 C              -0.00105828     -0.00339004     -0.00597011     -0.03124303      0.50457528      0.89135290      1.00000000       6       0       0       0       4     -0.03083024      0.50579755      0.88723221
 H              -0.69870836      0.84732649     -0.07441478      0.13285656      0.18159892     -0.04164120      1.00000000       1       0       0       0       4      0.14042914      0.17524799     -0.03851351
 H              -0.42016120     -0.81829431     -0.58867248      0.00442215     -0.59682841     -0.21129191      1.00000000       1       0       0       0       4      0.00705198     -0.59398598     -0.20711997
 H               0.12412379     -0.26064097      1.06354158     -0.33961912     -0.25732308     -0.08391998      1.00000000       1       0       0       0       4     -0.34495853     -0.25732132     -0.08534098
 H               1.00428314      0.27333773     -0.32825703      0.23302930      0.17019261     -0.55428315      1.00000000       1       0       0       0       4      0.22830765      0.17026176     -0.55625774
 5
 smiles=C config_type=methane_mol dft_energy=-1100.48438201 pop_gap_energy=-1100.4842680289369 cutoff=6.00000000 nneightol=1.20000000 pbc="T T T" Lattice="50.00000000       0.00000000       0.00000000       0.00000000      50.00000000       0.00000000       0.00000000       0.00000000      50.00000000" Properties=species:S:1:pos:R:3:dft_forces:R:3:atom_gaussian_weight:R:1:Z:I:1:map_shift:I:3:n_neighb:I:1:pop_gap_forces:R:3
 C              -0.00375040      0.00850732     -0.00486134      0.68134705     -1.93519943      0.46792675      1.00000000       6       0       0       0       4      0.69488716     -1.94915497      0.45855335
 H              -0.67735670      0.84108745     -0.04554614     -0.62918930      0.87456749     -0.34003814      1.00000000       1       0       0       0       4     -0.63594215      0.88246264     -0.34313830
 H              -0.37741121     -0.88238028     -0.58722148      0.03186325      0.70512484      0.34201848      1.00000000       1       0       0       0       4      0.03211425      0.71377949      0.35115351
 H               0.08772788     -0.29974240      1.06740513     -0.01529161      0.07681412     -0.42432705      1.00000000       1       0       0       0       4     -0.01552175      0.07276082     -0.42453419
 H               1.00865630      0.24099550     -0.37565227     -0.06929718      0.27950512     -0.04596989      1.00000000       1       0       0       0       4     -0.07553751      0.28015203     -0.04203437
 5
 smiles=C config_type=methane_mol dft_energy=-1100.45122555 pop_gap_energy=-1100.4511188483418 cutoff=6.00000000 nneightol=1.20000000 pbc="T T T" Lattice="50.00000000       0.00000000       0.00000000       0.00000000      50.00000000       0.00000000       0.00000000       0.00000000      50.00000000" Properties=species:S:1:pos:R:3:dft_forces:R:3:atom_gaussian_weight:R:1:Z:I:1:map_shift:I:3:n_neighb:I:1:pop_gap_forces:R:3
 C              -0.00386374     -0.00479833     -0.00874027      1.26465025      0.36042016      1.46917563      1.00000000       6       0       0       0       4      1.26743006      0.36881321      1.45879461
 H              -0.65326385      0.84595927     -0.01659047     -0.81428641      0.93345903     -0.55032588      1.00000000       1       0       0       0       4     -0.81620893      0.93826872     -0.55190757
 H              -0.37126291     -0.82761070     -0.58113773     -0.60785626     -0.94694582     -0.56247925      1.00000000       1       0       0       0       4     -0.60274789     -0.94726041     -0.55906201
 H               0.07021637     -0.23863665      1.07715370      0.15094116     -0.41012159     -0.33326084      1.00000000       1       0       0       0       4      0.15673542     -0.41523247     -0.33216222
 H               0.99727666      0.27879884     -0.37421884      0.00695789      0.06376486     -0.02433212      1.00000000       1       0       0       0       4     -0.00520867      0.05541096     -0.01566281
 5
 smiles=C config_type=methane_mol dft_energy=-1100.33579070 pop_gap_energy=-1100.3349943478336 cutoff=6.00000000 nneightol=1.20000000 pbc="T T T" Lattice="50.00000000       0.00000000       0.00000000       0.00000000      50.00000000       0.00000000       0.00000000       0.00000000      50.00000000" Properties=species:S:1:pos:R:3:dft_forces:R:3:atom_gaussian_weight:R:1:Z:I:1:map_shift:I:3:n_neighb:I:1:pop_gap_forces:R:3
 C               0.00363824      0.00656962     -0.00040304      0.07145937     -1.22182845     -0.83358008      1.00000000       6       0       0       0       4      0.07442509     -1.21443975     -0.81546436
 H              -0.71023179      0.84909323      0.01569902      0.14407946      0.12152548     -0.87172808      1.00000000       1       0       0       0       4      0.15150965      0.11743506     -0.86794777
 H              -0.35921685     -0.89546622     -0.62780711     -0.02613709      1.23499788      0.96701000      1.00000000       1       0       0       0       4     -0.02986244      1.22310660      0.95853532
 H              -0.00022708     -0.25428423      1.07570927      0.71056909     -0.42763889     -0.16647137      1.00000000       1       0       0       0       4      0.70565842     -0.42104898     -0.17787900
 H               1.02324745      0.22370685     -0.45774027     -0.89967736      0.29260861      0.90401657      1.00000000       1       0       0       0       4     -0.90173073      0.29494707      0.90275581
 5
 smiles=C config_type=methane_mol dft_energy=-1100.48351009 pop_gap_energy=-1100.4830129060642 cutoff=6.00000000 nneightol=1.20000000 pbc="T T T" Lattice="50.00000000       0.00000000       0.00000000       0.00000000      50.00000000       0.00000000       0.00000000       0.00000000      50.00000000" Properties=species:S:1:pos:R:3:dft_forces:R:3:atom_gaussian_weight:R:1:Z:I:1:map_shift:I:3:n_neighb:I:1:pop_gap_forces:R:3
 C               0.00392133     -0.00227744      0.00548595     -0.91729294     -0.02542829      0.47639482      1.00000000       6       0       0       0       4     -0.91523304     -0.03824641      0.49896852
 H              -0.68840595      0.84014586     -0.12306642     -0.05800135      0.30771156      0.24423871      1.00000000       1       0       0       0       4     -0.06735306      0.32014322      0.24829727
 H              -0.40679559     -0.79674695     -0.62005886     -0.07651746     -0.61796825      0.04095005      1.00000000       1       0       0       0       4     -0.08414478     -0.63269727      0.03304924
 H               0.09031311     -0.28820119      1.08040228     -0.08399210      0.01529600     -0.47705082      1.00000000       1       0       0       0       4     -0.08539022      0.02300185     -0.49514710
 H               0.95508866      0.27327373     -0.40159218      1.13593884      0.32368445     -0.28462209      1.00000000       1       0       0       0       4      1.15212111      0.32779861     -0.28516793
 5