37
Lattice="40.0 0.0 0.0 0.0 40.0 0.0 0.0 0.0 40.0" Properties=species:S:1:pos:R:3:dft_forces:R:3:forces:R:3:Potential_forces:R:3:gap_1_forces:R:3 config_type=ipriflavone_M4_rad22 minim_n_steps=324 gap_normal_mode_energy=0.4233334507171614 gap_normal_mode_temperature=T iter_no=1 dft_energy=-27056.291626916674 energy=-27056.291626916674 Potential_energy=-27064.494399954634 gap_1_energy=-27064.494399954634 dset_id=1016 pbc="F F F"
C        3.53475863      -0.88658295      -1.03232118       0.64869962      -0.72833634       0.37059521       0.64869962      -0.72833634       0.37059521       0.43609187      -0.91583219       0.02009553       0.43609187      -0.91583219       0.02009553
C        4.22611699      -0.16596890       0.12377609       1.22450818      -0.62946641      -0.71989864       1.22450818      -0.62946641      -0.71989864       0.77261347       0.14050804      -0.13164158       0.77261347       0.14050804      -0.13164158
C        5.79680494      -0.12323698      -0.06571957       1.53562399       2.41151463      11.96436167       1.53562399       2.41151463      11.96436167      -0.11187096      -0.44085479       0.46270420      -0.11187096      -0.44085479       0.46270420
O        6.29110818       0.42767682      -1.24548992       0.74205118       0.00304116      -1.30566730       0.74205118       0.00304116      -1.30566730      -0.86956337      -1.05757016      -0.26536113      -0.86956337      -1.05757016      -0.26536113
O        3.93610598       1.17986376       0.39599990      -1.92727876       1.26856084      -0.05906378      -1.92727876       1.26856084      -0.05906378      -1.13229202       0.21977123      -0.11632011      -1.13229202       0.21977123      -0.11632011
C        2.57258620       1.26849731       0.61416025      -1.15118923      -0.67154997       0.17390878      -1.15118923      -0.67154997       0.17390878       0.16221713       0.17140545       0.21946929       0.16221713       0.17140545       0.21946929
C        2.03141082       1.08280701       1.95750835       0.65654498      -0.39021578      -1.22024337       0.65654498      -0.39021578      -1.22024337       0.01882810      -0.24712363      -0.09951851       0.01882810      -0.24712363      -0.09951851
C        0.73808357       0.60293374       2.04707374      -0.42137520       1.08023292      -0.22385890      -0.42137520       1.08023292      -0.22385890      -0.03747273       0.70618534      -0.02488175      -0.03747273       0.70618534      -0.02488175
C       -0.13654155       0.53630380       0.96052613       0.01015576      -0.18383076      -1.45858005       0.01015576      -0.18383076      -1.45858005       0.42981147      -0.20125136      -1.02523838       0.42981147      -0.20125136      -1.02523838
C       -1.57179743       0.23982230       1.06836192      -0.56227310      -0.48416579       0.73698553      -0.56227310      -0.48416579       0.73698553      -1.14662086      -0.25808075       0.67858025      -1.14662086      -0.25808075       0.67858025
O       -2.11507054      -0.04097792       2.13294381       0.39131051       0.08485388       0.26332254       0.39131051       0.08485388       0.26332254       0.29710281       0.04776343       0.23146213       0.29710281       0.04776343       0.23146213
C       -2.37081908       0.28791848      -0.17481388       0.95900863      -0.07601390      -0.61575226       0.95900863      -0.07601390      -0.61575226       1.01244661       0.15188823      -0.63681273       1.01244661       0.15188823      -0.63681273
C       -1.71923486       0.55722653      -1.34808339      -0.25962569      -0.31164209       1.20914962      -0.25962569      -0.31164209       1.20914962      -0.27513943      -0.09118014       1.29446053      -0.27513943      -0.09118014       1.29446053
O       -0.38784693       0.73717659      -1.44021482      -0.48666672       0.42697296      -0.53501353      -0.48666672       0.42697296      -0.53501353      -0.14272534      -0.04545647      -0.55866355      -0.14272534      -0.04545647      -0.55866355
C        0.38093195       0.80253409      -0.33072453      -0.55780517       0.20442905       0.75965371      -0.55780517       0.20442905       0.75965371      -0.14559618      -0.09319727       0.33831384      -0.14559618      -0.09319727       0.33831384
C        1.69071996       1.17670228      -0.53090078       1.92245343       0.74873147       0.73288674       1.92245343       0.74873147       0.73288674       1.20392069       0.86873366      -0.03315879       1.20392069       0.86873366      -0.03315879
C       -3.80037379      -0.06412606      -0.09909955       0.47134124       0.19981700      -0.19232755       0.47134124       0.19981700      -0.19232755       0.41106398       0.06108871       0.03100553       0.41106398       0.06108871       0.03100553
C       -4.76511453       0.69440551      -0.73158156      -0.87722266       1.67027158      -0.68220016      -0.87722266       1.67027158      -0.68220016      -0.91050627       1.61451823      -0.70752736      -0.91050627       1.61451823      -0.70752736
C       -6.13971926       0.43255541      -0.62554408       0.14440641      -0.91072724      -0.28275573       0.14440641      -0.91072724      -0.28275573       0.19551220      -0.92643410      -0.13725372       0.19551220      -0.92643410      -0.13725372
C       -6.56984181      -0.73579509       0.05246288       1.41632836       1.15387656      -0.11330926       1.41632836       1.15387656      -0.11330926       1.48518675       1.10298597      -0.08763136       1.48518675       1.10298597      -0.08763136
C       -5.59268253      -1.53075620       0.65870443       0.62791316      -0.20335250      -0.02398134       0.62791316      -0.20335250      -0.02398134       0.62502012      -0.15800969      -0.07844252       0.62502012      -0.15800969      -0.07844252
C       -4.20860835      -1.18951827       0.59012897      -1.53430994      -1.10246462       0.37504233      -1.53430994      -1.10246462       0.37504233      -1.64995398      -1.10310908       0.37694232      -1.64995398      -1.10310908       0.37694232
H        2.86254984      -1.74820375      -0.81881822      -0.01159191       0.75852082       0.08888749      -0.01159191       0.75852082       0.08888749       0.31329603       0.53657907       0.06996808       0.31329603       0.53657907       0.06996808
H        4.21611372      -1.13638724      -1.86366877      -0.38390343       0.32881687      -0.39622547      -0.38390343       0.32881687      -0.39622547       0.00244168       0.37556030       0.11700971       0.00244168       0.37556030       0.11700971
H        4.02120896      -0.75310539       1.02260919       0.08431685      -0.21249927       0.50772639       0.08431685      -0.21249927       0.50772639       0.10129534      -0.44927679      -0.06951648       0.10129534      -0.44927679      -0.06951648
H        6.11221347       0.65716043       0.71329003      -0.50003403      -1.27555856       0.04686538      -0.50003403      -1.27555856       0.04686538      -0.34861689      -0.58927110      -0.38975510      -0.34861689      -0.58927110      -0.38975510
H        6.14944335      -1.14014418       0.32996349       0.36402665       0.62265676      -1.01471696       0.36402665       0.62265676      -1.01471696      -0.12247354       0.46386575      -0.08314965      -0.12247354       0.46386575      -0.08314965
H        5.63094475      -0.29628227      -1.11855273      -1.90239233      -2.34950849      -9.38381271      -1.90239233      -2.34950849      -9.38381271       0.65230987       1.17876125       0.20655155       0.65230987       1.17876125       0.20655155
H        2.55779209       1.18670404       2.93428491       0.37565850      -0.03328691      -1.05208216       0.37565850      -0.03328691      -1.05208216       0.02658248       0.11472245      -0.54199909       0.02658248       0.11472245      -0.54199909
H        0.31720650       0.40213748       3.00378739      -0.46506538      -0.25991710       1.02984841      -0.46506538      -0.25991710       1.02984841      -0.44048234      -0.42531682       0.90007715      -0.44048234      -0.42531682       0.90007715
H       -2.22187417       0.63378583      -2.29848639      -0.08298043      -0.08777373      -0.58712892      -0.08298043      -0.08777373      -0.58712892      -0.42205324       0.08026510      -0.84794880      -0.42205324       0.08026510      -0.84794880
H        1.99683491       1.46654395      -1.56640920       0.14713387      -0.47776018       0.87998603       0.14713387      -0.47776018       0.87998603       0.07460055      -0.21979836       0.26761392       0.07460055      -0.21979836       0.26761392
H       -4.43308087       1.59776533      -1.28588769      -0.22855867      -0.35516176       0.21663766      -0.22855867      -0.35516176       0.21663766      -0.16884914      -0.54175277       0.18494565      -0.16884914      -0.54175277       0.18494565
H       -6.85371350       1.05933538      -1.17148554       0.00944092       0.06505307       0.18586085       0.00944092       0.06505307       0.18586085       0.04608049       0.13258499       0.19834814       0.04608049       0.13258499       0.19834814
H       -7.61286280      -0.96775631       0.14591098      -0.75089638      -0.24383145      -0.01252106      -0.75089638      -0.24383145      -0.01252106      -0.77941214      -0.32341503       0.00718379      -0.77941214      -0.32341503       0.00718379
H       -5.93208043      -2.45215247       1.15910299       0.34497962       0.18336099       0.02840503       0.34497962       0.18336099       0.02840503       0.27191184       0.16893859       0.04247940       0.27191184       0.16893859       0.04247940
H       -3.45578339      -1.83324938       1.02729514       0.02726720      -0.22364772       0.30901576       0.02726720      -0.22364772       0.30901576       0.16529495      -0.04919530       0.18760962       0.16529495      -0.04919530       0.18760962
5
Properties=species:S:1:pos:R:3 pbc="F F F"
C        0.04967142      -0.01382643       0.06476885
H        0.78142099       0.60570266       0.60570430
H       -0.47119672      -0.55237453       0.58217056
H        0.68337400      -0.67545977      -0.67569098
H       -0.60492177       0.43778998      -0.80160978
