5
Properties=species:S:1:pos:R:3:gap_opt_gap_forces:R:3:gap_opt_dft_forces:R:3 config_type=methane_mol compound=methane mol_or_rad=mol dft_opt_dft_energy=24 gap_opt_gap_energy=12 gap_opt_dft_energy=10 dft_opt_gap_energy=20 pbc="F F F"
C        0.00000000       0.00000000       0.00000000       0.44595685       0.65226646       0.91166354       0.34595685       0.55226646       0.81166354
H        0.62911800       0.62911800       0.62911800       0.55235307       0.39957771       0.42337441       0.45235307       0.29957771       0.32337441
H       -0.62911800      -0.62911800       0.62911800       0.86605539       0.63454920       0.22099244       0.76605539       0.53454920       0.12099244
H        0.62911800      -0.62911800      -0.62911800       0.08001446       0.74545680       0.74537783      -0.01998554       0.64545680       0.64537783
H       -0.62911800       0.62911800      -0.62911800       0.83010153       0.12100234       0.71360821       0.73010153       0.02100234       0.61360821
4
Properties=species:S:1:pos:R:3:gap_opt_gap_forces:R:3:gap_opt_dft_forces:R:3 config_type=methane_rad1 compound=methane mol_or_rad=rad1 dft_opt_dft_energy=22 gap_opt_gap_energy=11 gap_opt_dft_energy=10 dft_opt_gap_energy=20 pbc="F F F"
C        0.00000000       0.00000000       0.00000000       0.92218400       0.35218259       0.89980151       0.82218400       0.25218259       0.79980151
H       -0.62911800      -0.62911800       0.62911800       0.40206640       0.52304165       0.68238649       0.30206640       0.42304165       0.58238649
H        0.62911800      -0.62911800      -0.62911800       0.19536503       0.31793000       0.70963062       0.09536503       0.21793000       0.60963062
H       -0.62911800       0.62911800      -0.62911800       0.87630133       0.73797945       0.68553516       0.77630133       0.63797945       0.58553516
4
Properties=species:S:1:pos:R:3:gap_opt_gap_forces:R:3:gap_opt_dft_forces:R:3 config_type=methane_rad2 compound=methane mol_or_rad=rad2 dft_opt_dft_energy=26 gap_opt_gap_energy=13 gap_opt_dft_energy=10 dft_opt_gap_energy=20 pbc="F F F"
C        0.00000000       0.00000000       0.00000000       0.34707554       0.35289666       0.72762230       0.24707554       0.25289666       0.62762230
H        0.62911800       0.62911800       0.62911800       0.09613809       0.96670510       0.21911603      -0.00386191       0.86670510       0.11911603
H        0.62911800      -0.62911800      -0.62911800       0.70029634       0.60619834       0.77231767       0.60029634       0.50619834       0.67231767
H       -0.62911800       0.62911800      -0.62911800       0.53801322       0.86529410       0.15894047       0.43801322       0.76529410       0.05894047
