14
Lattice="50.0 0.0 0.0 0.0 50.0 0.0 0.0 0.0 50.0" Properties=species:S:1:pos:R:3:gap_2_opt_forces:R:3:gap_2_opt_positions:R:3:gap_2_opt_dft_forces:R:3:dft_reopt_opt_forces:R:3 smiles=C(C)(C)C config_type=t_butane_mol minim_config_type=minim_last_converged minim_n_steps=0 gap_2_opt_energy=-4305.14520615611 mol_or_rad=mol compound=t-butane mol_gap_2_opt_positions_hash=3b66086b70e812ac7f9e72e2b06a4c51 gap_2_opt_dft_energy=-4305.164848927183 dft_reopt_opt_energy=-4305.170753241423 pbc="F F F"
C        0.05315108       0.05432544      -0.39542984       0.00003422       0.00006241       0.00004491       0.05187410       0.05357060      -0.39048814      -0.00403045      -0.00644282       0.02506434      -0.00017200      -0.00002194      -0.00091368
C        0.49542529       1.33926070       0.31623096       0.00016125       0.00015287       0.00005258       0.49239491       1.34778408       0.31749170      -0.02684600      -0.09010035      -0.01263741      -0.00176315      -0.00512521       0.00006719
C       -1.43600973      -0.22513683      -0.15599445      -0.00016529       0.00003651       0.00002466      -1.44273306      -0.23244587      -0.15680735       0.09650079       0.02038954       0.01716377       0.00540302       0.00116482       0.00287317
C        0.91550234      -1.14024479       0.03152060       0.00017239       0.00019716      -0.00010760       0.92448297      -1.14202785       0.03313887      -0.07494456       0.06448168       0.00024727      -0.00433397       0.00292291       0.00064645
H        0.19784173       0.20366376      -1.48392701      -0.00013554      -0.00024244       0.00008934       0.19684321       0.20334593      -1.48000016      -0.00742222      -0.00707658       0.04043620       0.00018343       0.00033563       0.00011962
H       -0.10278042       2.20847159      -0.01368842      -0.00020595      -0.00032341       0.00012245      -0.06196428       2.22533160      -0.06316610      -0.02376259      -0.02316133      -0.00189459       0.00062652       0.00071105       0.00001231
H        1.55903393       1.56542109       0.11637216       0.00029755      -0.00007426       0.00021330       1.57060080       1.54522737       0.16990278      -0.00675609      -0.02481474      -0.02080076      -0.00008804       0.00115731       0.00043374
H        0.37200946       1.24291531       1.41257094       0.00002924       0.00014026      -0.00040233       0.31145538       1.28625684       1.40868897      -0.00045285      -0.02876339      -0.01517230       0.00071767       0.00227835       0.00042691
H       -1.63700407      -0.38195628       0.92138247      -0.00017768      -0.00038870      -0.00003192      -1.64343661      -0.45566618       0.90953800       0.03182654       0.01796266      -0.01622501      -0.00268204      -0.00043294      -0.00108219
H       -2.06481210       0.61887139      -0.49489233       0.00012520      -0.00019812      -0.00021241      -2.07141467       0.63258595      -0.43930821       0.02937511       0.00874410      -0.00828759      -0.00095434      -0.00080317      -0.00110442
H       -1.76828149      -1.13191375      -0.69401293      -0.00000143       0.00032406       0.00026033      -1.78539006      -1.10079981      -0.74914976       0.02803117      -0.01177199       0.00922729      -0.00050098       0.00028670      -0.00115676
H        0.80764453      -1.33449625       1.11634250      -0.00012131       0.00002160      -0.00003589       0.87449379      -1.30337153       1.12798300      -0.02611838       0.01515053      -0.01338134       0.00157677      -0.00165006      -0.00018867
H        1.98715634      -0.95824666      -0.17189147       0.00017623      -0.00011498      -0.00002233       1.98577569      -0.98141268      -0.23170452       0.00145150       0.02775644       0.00553852       0.00030957      -0.00016972      -0.00027432
H        0.62112212      -2.06093572      -0.50458218      -0.00018888       0.00040705       0.00000492       0.59701683      -2.07837944      -0.45611808      -0.01685197       0.03764626      -0.00927839       0.00167752      -0.00065375       0.00014067
13
Lattice="50.0 0.0 0.0 0.0 50.0 0.0 0.0 0.0 50.0" Properties=species:S:1:pos:R:3:gap_2_opt_forces:R:3:gap_2_opt_positions:R:3:gap_2_opt_dft_forces:R:3:dft_reopt_opt_forces:R:3 smiles=C(C)(C)C config_type=t_butane_rad4 minim_config_type=minim_last_converged minim_n_steps=26 gap_2_opt_energy=-4287.362778548974 mol_or_rad=rad4 compound=t-butane mol_mol_gap_2_opt_positions_hash=3b66086b70e812ac7f9e72e2b06a4c51 gap_2_opt_dft_energy=-4287.340924717603 dft_reopt_opt_energy=-4287.344891289779 pbc="F F F"
C        0.00953568       0.00997978      -0.07402941      -0.00011927      -0.00030398      -0.00022627       0.00966462       0.00995389      -0.07262233       0.02733002       0.02633477      -0.21352797      -0.00140767      -0.00113025       0.00762950
C        0.49768315       1.36119363       0.34493399       0.00010188      -0.00052856       0.00024853       0.49628104       1.35762665       0.34249770       0.00016171       0.02120967      -0.00019563      -0.00063073      -0.00110366      -0.00261381
C       -1.46522076      -0.23641563      -0.13728206      -0.00058570       0.00023612       0.00014203      -1.46030381      -0.23583291      -0.13622343      -0.01431970      -0.00205879       0.00427716       0.00177933       0.00028889      -0.00257442
C        0.93214374      -1.16114577       0.05566071       0.00016584      -0.00038147       0.00017802       0.92930346      -1.15765924       0.05486646       0.00778099      -0.01843264       0.00153878      -0.00089338       0.00124251      -0.00201823
H       -0.11921098       2.17286572      -0.08388194       0.00054385      -0.00028934       0.00031367      -0.11753294       2.16904217      -0.08835577      -0.02883771       0.03032883       0.00830645       0.00035476       0.00021894      -0.00070639
H        1.54859171       1.53086151       0.04368271      -0.00021130       0.00028316      -0.00009730       1.54657757       1.52728167       0.04437408       0.04905525       0.00626199       0.01309064       0.00010072       0.00050446      -0.00132039
H        0.46347438       1.49065453       1.45367869      -0.00011863       0.00034564      -0.00033179       0.45287494       1.47390871       1.44988646       0.03027682       0.08672394       0.07798884       0.00058461      -0.00060589       0.00028540
H       -1.89978651      -0.42405857       0.87388172       0.00013158      -0.00042320       0.00005978      -1.87788698      -0.42365559       0.87966863      -0.10900989      -0.02002039       0.03375661       0.00054496       0.00059867       0.00144141
H       -2.01064677       0.63165444      -0.55373502      -0.00022680       0.00056166      -0.00039428      -2.00627648       0.63064646      -0.55078525      -0.03871096       0.04712984       0.01028275      -0.00029923      -0.00021122      -0.00055490
H       -1.70817050      -1.12464677      -0.75078962       0.00017619      -0.00020084       0.00018232      -1.70487173      -1.12077291      -0.75090590      -0.01671878      -0.05759864      -0.00237727      -0.00047711       0.00001799       0.00018428
H        0.98406957      -1.53548517       1.10622894       0.00017670       0.00035012       0.00015625       0.96837055      -1.52191988       1.10723594       0.06173159      -0.08331722       0.04877481      -0.00001577       0.00094339       0.00111244
H        1.96835083      -0.90299883      -0.23389397       0.00032541       0.00022446       0.00015650       1.96469277      -0.90122421      -0.23316746       0.05409743       0.01003825       0.01838676       0.00009603      -0.00046672      -0.00097300
H        0.60234225      -2.01580580      -0.56445357      -0.00035975       0.00012622      -0.00038746       0.60226278      -2.01074174      -0.56646797      -0.02283678      -0.04659961      -0.00030193       0.00026348      -0.00029711       0.00010810
13
Lattice="50.0 0.0 0.0 0.0 50.0 0.0 0.0 0.0 50.0" Properties=species:S:1:pos:R:3:gap_2_opt_forces:R:3:gap_2_opt_positions:R:3:gap_2_opt_dft_forces:R:3:dft_reopt_opt_forces:R:3 smiles=C(C)(C)C config_type=t_butane_rad5 minim_config_type=minim_last_converged minim_n_steps=54 gap_2_opt_energy=-4287.030103766196 mol_or_rad=rad5 compound=t-butane mol_mol_gap_2_opt_positions_hash=3b66086b70e812ac7f9e72e2b06a4c51 gap_2_opt_dft_energy=-4287.010666267525 dft_reopt_opt_energy=-4287.019039568563 pbc="F F F"
C        0.08698671       0.03067859      -0.35595226      -0.00008548      -0.00006527      -0.00011072       0.08751221       0.04229780      -0.34410931      -0.08784233      -0.04440963      -0.17890847      -0.00155540       0.00359168      -0.00337526
C        0.57075509       1.23618634       0.38812233       0.00007189      -0.00000861      -0.00007383       0.57572415       1.24510013       0.39556181       0.00152187      -0.02411281       0.07609340       0.00093932      -0.00052516      -0.00014450
C       -1.40757185      -0.22646633      -0.11590982       0.00008604      -0.00000568       0.00025656      -1.40835459      -0.22322085      -0.10738818      -0.00183920       0.00417830      -0.05483844      -0.00131999       0.00166748       0.00079803
C        0.92398910      -1.22070589       0.00163244       0.00010794       0.00001558       0.00003843       0.91881572      -1.21817456      -0.01236363       0.03484923      -0.02230385       0.04468666       0.00135831       0.00070600       0.00215975
H        0.23635015       0.21261450      -1.44020636       0.00001399       0.00007707       0.00023792       0.23118776       0.21968180      -1.43090549       0.00191973       0.03857349       0.02207423      -0.00050765      -0.00114260       0.00015993
H        1.51280742       1.72177861       0.10661629      -0.00027704      -0.00002814      -0.00006924       1.52851204       1.71806176       0.12645613      -0.02813882      -0.00508378      -0.01026245      -0.00032720      -0.00024608       0.00097926
H        0.11203504       1.52496153       1.34191549       0.00037899      -0.00030226       0.00047916       0.12498567       1.51410470       1.35871813       0.01205664       0.04563820       0.01162295      -0.00142590      -0.00101897       0.00047716
H       -1.60171615      -0.42380062       0.95565822      -0.00036215       0.00090858       0.00005356      -1.62327696      -0.32340320       0.97359594       0.00476425      -0.03082834      -0.00482552      -0.00037779       0.00018370      -0.00032161
H       -2.01762437       0.64492701      -0.41462743      -0.00021977      -0.00038412      -0.00029733      -2.04026465       0.59454448      -0.50379770       0.07384057      -0.02199637       0.04402252       0.00059425      -0.00168005       0.00080196
H       -1.76017694      -1.10400623      -0.68780647       0.00007922      -0.00019857      -0.00023674      -1.71669676      -1.16300854      -0.60382765      -0.03904978       0.05270917       0.03154180       0.00167162       0.00060080      -0.00061439
H        0.80959668      -1.47339615       1.07210219      -0.00025452      -0.00004793      -0.00007749       0.79330512      -1.51662493       1.04411523      -0.01163173       0.03822714       0.04950089       0.00139881      -0.00186032       0.00030426
H        1.99869164      -1.05427719      -0.19429561       0.00031197       0.00006994      -0.00041404       1.99525785      -1.04843573      -0.19044557       0.02852340       0.00257478      -0.00611369       0.00070139      -0.00013984      -0.00006527
H        0.59784076      -2.09382675      -0.59408192       0.00014891      -0.00003059       0.00021377       0.59525572      -2.06625545      -0.64244262       0.01102619      -0.03316629      -0.02459388      -0.00114977      -0.00013666      -0.00115932
13
Lattice="50.0 0.0 0.0 0.0 50.0 0.0 0.0 0.0 50.0" Properties=species:S:1:pos:R:3:gap_2_opt_forces:R:3:gap_2_opt_positions:R:3:gap_2_opt_dft_forces:R:3:dft_reopt_opt_forces:R:3 smiles=C(C)(C)C config_type=t_butane_rad6 minim_config_type=minim_last_converged minim_n_steps=61 gap_2_opt_energy=-4287.030106025781 mol_or_rad=rad6 compound=t-butane mol_mol_gap_2_opt_positions_hash=3b66086b70e812ac7f9e72e2b06a4c51 gap_2_opt_dft_energy=-4287.010024535966 dft_reopt_opt_energy=-4287.018786163537 pbc="F F F"
C       -0.00045097       0.06387149      -0.37265342      -0.00009725      -0.00016146       0.00025895       0.00642137       0.07347989      -0.36102639       0.05696107      -0.10436226      -0.18303635       0.00411130       0.00095388      -0.00394819
C        0.35598570       1.32678319       0.34790395       0.00007802       0.00007578       0.00017570       0.35825040       1.33687661       0.35460114      -0.03157482      -0.01195687       0.08199696      -0.00082829      -0.00003007       0.00007607
C       -1.49619853      -0.28508991      -0.18504752      -0.00041871      -0.00079963      -0.00018580      -1.48807963      -0.28682142      -0.19803202      -0.04707575       0.01732147       0.04662509      -0.00105046       0.00177954       0.00246113
C        0.89117361      -1.10942217       0.05831951       0.00000732      -0.00000849      -0.00028636       0.89353255      -1.10748545       0.06614200       0.00347181      -0.00560428      -0.05811151       0.00146481       0.00045187       0.00100213
H        0.15181577       0.23262922      -1.45860160      -0.00002460      -0.00011830      -0.00026748       0.15986975       0.23509357      -1.44891870       0.02063490       0.03022613       0.02693396      -0.00030112      -0.00127290       0.00026110
H        0.03005623       2.29922874      -0.04022398       0.00005474      -0.00007647       0.00023878       0.01300626       2.30762930      -0.02275267       0.02035570      -0.02134068      -0.00954749      -0.00069322      -0.00035257       0.00066233
H        0.76917736       1.29358917       1.36358504      -0.00006028       0.00021834      -0.00015413       0.74162771       1.29402835       1.38145406       0.02501611       0.04318334       0.01068837       0.00057700      -0.00112938       0.00017994
H       -1.71973514      -0.48398442       0.87932370       0.00014166       0.00035260      -0.00075901      -1.73190852      -0.52729493       0.85256091       0.02739391       0.02501066       0.04309542      -0.00231110      -0.00032523      -0.00021807
H       -2.14677986       0.54313555      -0.51865479       0.00007881       0.00003101       0.00028752      -2.13950000       0.54670836      -0.51449638      -0.01459997       0.01232892      -0.00623292      -0.00042826       0.00001578      -0.00027427
H       -1.76473987      -1.18732123      -0.76640347       0.00023415       0.00044216       0.00046990      -1.73748983      -1.17081900      -0.81229597      -0.03024860      -0.02150613      -0.02902519       0.00085283      -0.00126816      -0.00080441
H        0.76118697      -1.32241171       1.13673407       0.00027295       0.00014061       0.00005732       0.84607652      -1.25827212       1.16146669      -0.02394075      -0.02330454       0.00425123       0.00068457      -0.00005847       0.00027396
H        1.95948764      -0.88633686      -0.11568926      -0.00004972       0.00008699       0.00032293       1.95388107      -0.94695362      -0.20783493      -0.06690258       0.03667593       0.03198510      -0.00140016      -0.00050798       0.00066719
H        0.63841929      -2.02989941      -0.49849399      -0.00021709      -0.00018314      -0.00015830       0.55371055      -2.04139790      -0.42076951       0.06050896       0.02332831       0.04037731      -0.00067789       0.00174369      -0.00033891
13
Lattice="50.0 0.0 0.0 0.0 50.0 0.0 0.0 0.0 50.0" Properties=species:S:1:pos:R:3:gap_2_opt_forces:R:3:gap_2_opt_positions:R:3:gap_2_opt_dft_forces:R:3:dft_reopt_opt_forces:R:3 smiles=C(C)(C)C config_type=t_butane_rad7 minim_config_type=minim_last_converged minim_n_steps=43 gap_2_opt_energy=-4287.0133840613635 mol_or_rad=rad7 compound=t-butane mol_mol_gap_2_opt_positions_hash=3b66086b70e812ac7f9e72e2b06a4c51 gap_2_opt_dft_energy=-4287.017729647407 dft_reopt_opt_energy=-4287.026633738393 pbc="F F F"
C        0.05651354       0.04042082      -0.45909906       0.00017239      -0.00044865      -0.00010103       0.06112178       0.05483868      -0.45451322       0.00255248      -0.04692894       0.10114384      -0.00091575       0.00488676       0.00566611
C        0.52341067       1.34354952       0.10907480      -0.00002740       0.00011633      -0.00000008       0.53562399       1.37031844       0.08848715      -0.07181086      -0.17588759      -0.01115845      -0.00354034      -0.00697432      -0.00317932
C       -1.43162263      -0.21059820      -0.15965457       0.00040702      -0.00025851       0.00031550      -1.42610763      -0.21317701      -0.15088354       0.01829271      -0.01081645       0.03177007       0.00258999       0.00502317      -0.00078238
C        0.93042516      -1.13369514       0.01066627      -0.00013087       0.00016392      -0.00032771       0.92480607      -1.13152779       0.01515385      -0.04876752       0.00890103       0.01644288       0.00225480       0.00408613       0.00042504
H        0.15516334       0.09384499      -1.56968006       0.00005895      -0.00002105       0.00008457       0.14481365       0.07922533      -1.56602367       0.04890068       0.09346853      -0.03246691       0.00207668      -0.00104806      -0.00185474
H       -0.14804990       2.20990579       0.14468058       0.00047819       0.00049046       0.00013765      -0.13312435       2.23864409       0.11440065      -0.01608804       0.00017711      -0.00765350      -0.00094951      -0.00065209       0.00234213
H        1.57952890       1.50312637       0.35622782      -0.00001735      -0.00057505      -0.00003133       1.58801900       1.52691613       0.35183029       0.00709638      -0.01625750      -0.01134766       0.00061302      -0.00064986      -0.00178820
H       -1.60008676      -0.30690684       0.92902451      -0.00029974      -0.00028050       0.00022166      -1.59781739      -0.35079909       0.93321107       0.05187043       0.05111844       0.00642831      -0.00103464      -0.00097165      -0.00048153
H       -2.05994125       0.62158146      -0.52682278      -0.00037418       0.00021292      -0.00031179      -2.07581897       0.61343844      -0.49279596       0.03681339       0.00753298      -0.02629356      -0.00058747      -0.00080913       0.00086369
H       -1.78329440      -1.13948630      -0.64423462      -0.00021400      -0.00024075      -0.00005953      -1.75427891      -1.13849284      -0.65715887      -0.05552951       0.00583677      -0.02282633       0.00120954      -0.00149043      -0.00057034
H        0.85539165      -1.26354340       1.10661608      -0.00009854       0.00031808      -0.00021814       0.82150049      -1.29927091       1.10404082      -0.00267643       0.07398941       0.00035082       0.00021214      -0.00078732      -0.00045819
H        1.99453038      -0.96539931      -0.23797403      -0.00000124       0.00046983       0.00010596       1.99820969      -0.97848100      -0.20189796      -0.02104490       0.03612717      -0.03528007      -0.00013785      -0.00071519       0.00096537
H        0.61657494      -2.07905760      -0.46751292       0.00004676       0.00005298       0.00018427       0.60159620      -2.05789031      -0.49253858       0.05039119      -0.02726095      -0.00910946      -0.00179061       0.00010199      -0.00114762
13
Lattice="50.0 0.0 0.0 0.0 50.0 0.0 0.0 0.0 50.0" Properties=species:S:1:pos:R:3:gap_2_opt_forces:R:3:gap_2_opt_positions:R:3:gap_2_opt_dft_forces:R:3:dft_reopt_opt_forces:R:3 smiles=C(C)(C)C config_type=t_butane_rad8 minim_config_type=minim_last_converged minim_n_steps=43 gap_2_opt_energy=-4287.01338406843 mol_or_rad=rad8 compound=t-butane mol_mol_gap_2_opt_positions_hash=3b66086b70e812ac7f9e72e2b06a4c51 gap_2_opt_dft_energy=-4287.01735644586 dft_reopt_opt_energy=-4287.026256248739 pbc="F F F"
C        0.08131415       0.06863753      -0.45050904       0.00043777      -0.00004786      -0.00010777       0.06626390       0.06658438      -0.45215084      -0.01088477       0.00474021       0.09891106      -0.00449828       0.00077885       0.00316088
C        0.48982952       1.35148980       0.29125408       0.00006351       0.00059574      -0.00058246       0.48924382       1.34472300       0.29711917       0.00343387      -0.03951619       0.01328821      -0.00519389      -0.00068080      -0.00222895
C       -1.38902372      -0.18738099      -0.35124494      -0.00067092      -0.00023339      -0.00029215      -1.41095160      -0.18561287      -0.38362631       0.19697011       0.00871950       0.06664245       0.00678117       0.00180611      -0.00110936
C        0.90263237      -1.14237060       0.02547630       0.00015342       0.00012707       0.00077424       0.89894744      -1.13703654       0.03136609      -0.02377249       0.01399405       0.02558077      -0.00455135      -0.00123631      -0.00133693
H        0.33194036       0.22250707      -1.52738672       0.00008560       0.00013670       0.00008966       0.34993286       0.22351046      -1.51890626      -0.09018122       0.00279715      -0.06555721       0.00090136      -0.00035506      -0.00142054
H       -0.07732430       2.22478908      -0.07942642      -0.00025884      -0.00041651       0.00015374      -0.07908993       2.23235578      -0.03733152      -0.00247796      -0.04524077      -0.04057315       0.00068911      -0.00003312       0.00197870
H        1.56579137       1.56462098       0.15586195      -0.00039844      -0.00013817       0.00019940       1.56305326       1.54262539       0.12933320       0.00978222       0.06346689      -0.00601420       0.00116308      -0.00144905       0.00093995
H        0.29356840       1.25581209       1.37571762      -0.00014532      -0.00025097      -0.00022939       0.34000714       1.24030197       1.38858903      -0.06348402      -0.03937593      -0.01478941       0.00021854       0.00004100       0.00076703
H       -2.09671221       0.64100548      -0.22690087       0.00049896       0.00021498       0.00025349      -2.12071358       0.64080927      -0.26247198       0.01086974       0.02334332      -0.00609099       0.00035161      -0.00013937       0.00193704
H       -1.79665732      -1.18122416      -0.57185213      -0.00044549       0.00050585       0.00012487      -1.81742606      -1.18476834      -0.57954046       0.01545292      -0.00754604      -0.01846731       0.00116332      -0.00008115      -0.00212169
H        0.72710267      -1.33475385       1.10034430       0.00029095      -0.00001504      -0.00002025       0.75886827      -1.31531350       1.11409617      -0.07250152       0.01725237      -0.00700735       0.00108012      -0.00102011      -0.00044759
H        1.98515544      -0.97105329      -0.12028085       0.00034896      -0.00004355       0.00002540       1.97379954      -0.94412108      -0.13505808       0.04344641      -0.04678322      -0.02196712       0.00107835       0.00212017      -0.00040704
H        0.62581887      -2.05641395      -0.53059028       0.00003984      -0.00043487      -0.00038879       0.63150055      -2.06839273      -0.50095520      -0.01665329       0.04414865      -0.02395575       0.00081685       0.00024883       0.00028849
13
Lattice="50.0 0.0 0.0 0.0 50.0 0.0 0.0 0.0 50.0" Properties=species:S:1:pos:R:3:gap_2_opt_forces:R:3:gap_2_opt_positions:R:3:gap_2_opt_dft_forces:R:3:dft_reopt_opt_forces:R:3 smiles=C(C)(C)C config_type=t_butane_rad9 minim_config_type=minim_last_converged minim_n_steps=58 gap_2_opt_energy=-4287.030105747628 mol_or_rad=rad9 compound=t-butane mol_mol_gap_2_opt_positions_hash=3b66086b70e812ac7f9e72e2b06a4c51 gap_2_opt_dft_energy=-4287.009977251775 dft_reopt_opt_energy=-4287.018504139046 pbc="F F F"
C        0.06295439       0.00108773      -0.37243856       0.00075961       0.00016816      -0.00026112       0.04794425       0.00179943      -0.36532857       0.10389312       0.12304174      -0.14819291       0.00220463       0.00380911      -0.00394164
C        0.47296961       1.30031060       0.33553954      -0.00057808      -0.00047246       0.00034616       0.46850711       1.30154938       0.34030628       0.01164674       0.02183387      -0.05115418       0.00069989      -0.00169480       0.00051745
C       -1.36923238      -0.34611431      -0.11045481      -0.00040793       0.00047202       0.00071031      -1.38149070      -0.34824409      -0.10801608       0.01463510      -0.03536646       0.08348914      -0.00021407      -0.00248712       0.00387440
C        1.00294988      -1.16200673       0.02541235      -0.00025954       0.00073638      -0.00013659       1.00360254      -1.15255147       0.01437671      -0.01687560      -0.05832634       0.04587469       0.00000745      -0.00206108       0.00041876
H        0.18768877       0.14866495      -1.46517701       0.00058450      -0.00036372       0.00055259       0.17817273       0.15317630      -1.45774316      -0.04197639       0.00084175       0.01262310      -0.00031354       0.00152546       0.00031899
H       -0.16448426       2.14570623       0.02082809      -0.00039202       0.00006006      -0.00009315      -0.08232690       2.17909759      -0.04910509      -0.00455345      -0.09582222       0.02830975      -0.00067740      -0.00090193      -0.00067401
H        1.52356312       1.56203925       0.11381492       0.00081296       0.00015015       0.00018033       1.54992560       1.48671189       0.19551188      -0.04845037       0.04064922       0.02506775      -0.00022669       0.00078650       0.00156354
H        0.37639653       1.19413108       1.43338759      -0.00013030       0.00009980      -0.00052247       0.27711274       1.23740953       1.42843440       0.02326121      -0.00785312       0.01232880      -0.00087056       0.00050295      -0.00013297
H       -1.85803759      -0.03693548       0.82172696      -0.00001327      -0.00036966      -0.00063500      -1.84566761      -0.07950588       0.84884521      -0.05043235       0.00535451      -0.00467815      -0.00150296       0.00173466      -0.00206391
H       -1.89407227      -1.06669997      -0.74937806      -0.00057342      -0.00000653       0.00043445      -1.90092505      -1.07780749      -0.74193737       0.00325266       0.02498630      -0.00663700       0.00110459      -0.00141939       0.00039307
H        0.94568108      -1.35697762       1.11238539      -0.00004150      -0.00011553      -0.00057171       0.99282416      -1.34244723       1.10287502      -0.04518775       0.00593247       0.03415222      -0.00039005       0.00002873      -0.00005540
H        2.05349434      -0.92113892      -0.22578856       0.00028293       0.00007578      -0.00002195       2.04037973      -0.90089212      -0.27315103       0.04890887      -0.01413916      -0.02269467       0.00025424       0.00027420      -0.00061414
H        0.73154247      -2.09465376      -0.50054862      -0.00004394      -0.00043447       0.00001816       0.72335509      -2.09088279      -0.49575899       0.00187821      -0.01113256      -0.00848853      -0.00007553      -0.00009730       0.00039586
13
Lattice="50.0 0.0 0.0 0.0 50.0 0.0 0.0 0.0 50.0" Properties=species:S:1:pos:R:3:gap_2_opt_forces:R:3:gap_2_opt_positions:R:3:gap_2_opt_dft_forces:R:3:dft_reopt_opt_forces:R:3 smiles=C(C)(C)C config_type=t_butane_rad10 minim_config_type=minim_last_converged minim_n_steps=59 gap_2_opt_energy=-4287.0301060763395 mol_or_rad=rad10 compound=t-butane mol_mol_gap_2_opt_positions_hash=3b66086b70e812ac7f9e72e2b06a4c51 gap_2_opt_dft_energy=-4287.010098865718 dft_reopt_opt_energy=-4287.018331061896 pbc="F F F"
C        0.04400765       0.09316622      -0.35307173       0.00009535      -0.00004679      -0.00009597       0.03003508       0.08611638      -0.34578830       0.13451646      -0.04606511      -0.16123031      -0.00178127      -0.00293410      -0.00390904
C        0.56838738       1.38825333       0.31278480       0.00005504       0.00022290      -0.00004368       0.57191062       1.38274766       0.29842077      -0.02027049       0.05082426       0.04975385      -0.00171186       0.00048763       0.00088530
C       -1.40915092      -0.11596672      -0.05982953      -0.00024098      -0.00021453      -0.00001288      -1.42147302      -0.11761870      -0.05644243      -0.00674261       0.01770037       0.07462505      -0.00008087       0.00109229      -0.00087138
C        0.88961646      -1.11751155       0.06775658      -0.00035934      -0.00000966      -0.00016162       0.88542259      -1.12060100       0.07406515       0.00627577      -0.00428880      -0.05165397      -0.00220071      -0.00253997       0.00044355
H        0.15808802       0.23067221      -1.44811660      -0.00008692      -0.00011784       0.00024455       0.15121317       0.22129538      -1.44134972      -0.03980609      -0.01922140       0.00728722       0.00124245      -0.00002575       0.00055881
H       -0.02021712       2.26748945      -0.00426173       0.00001394      -0.00004651      -0.00000284      -0.02357420       2.26174333      -0.00494328      -0.00535084       0.01128442      -0.01042204       0.00064904       0.00051540      -0.00008640
H        1.62595357       1.56814755       0.04186181       0.00011844       0.00004963       0.00000005       1.61929385       1.55378299      -0.00924014       0.03497230       0.03189295      -0.01851078       0.00162484      -0.00105469      -0.00107369
H        0.50311874       1.31474907       1.41454648       0.00000516      -0.00002133       0.00008971       0.55051598       1.32349677       1.40159718      -0.03793829      -0.03140161       0.04520883       0.00133516       0.00246153       0.00094223