19
Properties=species:S:1:pos:R:3:dft_forces:R:3 pbc="F F F"
C        1.57651793       2.24283205      -7.00131029       0.00000000       0.00000000       0.00000000
O        0.90163868       1.00072783      -6.83860396       0.00000000       0.00000000       0.00000000
H        1.70778263       2.38084548      -8.07407312       0.00000000       0.00000000       0.00000000
H        0.99509738       3.08652050      -6.61020203       0.00000000       0.00000000       0.00000000
H        2.56510756       2.24445217      -6.52642752       0.00000000       0.00000000       0.00000000
C        0.00000000       0.00000000       0.00000000      -0.00108204       0.00086374      -0.00209357
C        0.43843644       1.29440395       0.73362715      -0.00040663      -0.00117288      -0.00135590
C       -1.50345037      -0.29111227       0.24682800      -0.00095584       0.00064716      -0.00394339
C        0.87706100      -1.20698883       0.42343691       0.00218757       0.00031066       0.00346781
H        0.14347762       0.15924566      -1.08822596      -0.00640769       0.00464176      -0.00181934
H       -0.16592287       2.15907855       0.40841877       0.00309124       0.00378154       0.00221108
H        1.49996844       1.52628438       0.53838113       0.00077123      -0.00288225       0.00129627
H        0.30979587       1.18389945       1.82652879       0.00321323      -0.00580988      -0.00102680
H       -1.69406055      -0.46195175       1.32241694       0.00742015      -0.00280961      -0.00406416
H       -2.13220263       0.55707233      -0.07633984      -0.00275299       0.00162725      -0.00330017
H       -1.83316245      -1.18982492      -0.30275602       0.00028069      -0.00573384       0.00396530
H        0.77098940      -1.40368452       1.50619761      -0.00656292       0.00127818       0.00664127
H        1.94528003      -1.01696845       0.21786460       0.00368479       0.00435317      -0.00110729
H        0.58304277      -2.12325807      -0.11704689      -0.00248080       0.00090499       0.00112888
19
Properties=species:S:1:pos:R:3:dft_forces:R:3 pbc="F F F"
C        1.53434660       2.19602614      -6.68145597       0.00000000       0.00000000       0.00000000
O        0.85946735       0.95392191      -6.51874964       0.00000000       0.00000000       0.00000000
H        1.66561130       2.33403956      -7.75421880       0.00000000       0.00000000       0.00000000
H        0.95292605       3.03971459      -6.29034771       0.00000000       0.00000000       0.00000000
H        2.52293623       2.19764625      -6.20657320       0.00000000       0.00000000       0.00000000
C        0.00000000       0.00000000       0.00000000      -0.00108204       0.00086374      -0.00209357
C        0.43843644       1.29440395       0.73362715      -0.00040663      -0.00117288      -0.00135590
C       -1.50345037      -0.29111227       0.24682800      -0.00095584       0.00064716      -0.00394339
C        0.87706100      -1.20698883       0.42343691       0.00218757       0.00031066       0.00346781
H        0.14347762       0.15924566      -1.08822596      -0.00640769       0.00464176      -0.00181934
H       -0.16592287       2.15907855       0.40841877       0.00309124       0.00378154       0.00221108
H        1.49996844       1.52628438       0.53838113       0.00077123      -0.00288225       0.00129627
H        0.30979587       1.18389945       1.82652879       0.00321323      -0.00580988      -0.00102680
H       -1.69406055      -0.46195175       1.32241694       0.00742015      -0.00280961      -0.00406416
H       -2.13220263       0.55707233      -0.07633984      -0.00275299       0.00162725      -0.00330017
H       -1.83316245      -1.18982492      -0.30275602       0.00028069      -0.00573384       0.00396530
H        0.77098940      -1.40368452       1.50619761      -0.00656292       0.00127818       0.00664127
H        1.94528003      -1.01696845       0.21786460       0.00368479       0.00435317      -0.00110729
H        0.58304277      -2.12325807      -0.11704689      -0.00248080       0.00090499       0.00112888
19
Properties=species:S:1:pos:R:3:dft_forces:R:3 pbc="F F F"
C        1.49217527       2.14922022      -6.36160165       0.00000000       0.00000000       0.00000000
O        0.81729602       0.90711600      -6.19889532       0.00000000       0.00000000       0.00000000
H        1.62343997       2.28723365      -7.43436449       0.00000000       0.00000000       0.00000000
H        0.91075472       2.99290867      -5.97049339       0.00000000       0.00000000       0.00000000
H        2.48076490       2.15084033      -5.88671888       0.00000000       0.00000000       0.00000000
C        0.00000000       0.00000000       0.00000000      -0.00108204       0.00086374      -0.00209357
C        0.43843644       1.29440395       0.73362715      -0.00040663      -0.00117288      -0.00135590
C       -1.50345037      -0.29111227       0.24682800      -0.00095584       0.00064716      -0.00394339
C        0.87706100      -1.20698883       0.42343691       0.00218757       0.00031066       0.00346781
H        0.14347762       0.15924566      -1.08822596      -0.00640769       0.00464176      -0.00181934
H       -0.16592287       2.15907855       0.40841877       0.00309124       0.00378154       0.00221108
H        1.49996844       1.52628438       0.53838113       0.00077123      -0.00288225       0.00129627
H        0.30979587       1.18389945       1.82652879       0.00321323      -0.00580988      -0.00102680
H       -1.69406055      -0.46195175       1.32241694       0.00742015      -0.00280961      -0.00406416
H       -2.13220263       0.55707233      -0.07633984      -0.00275299       0.00162725      -0.00330017
H       -1.83316245      -1.18982492      -0.30275602       0.00028069      -0.00573384       0.00396530
H        0.77098940      -1.40368452       1.50619761      -0.00656292       0.00127818       0.00664127
H        1.94528003      -1.01696845       0.21786460       0.00368479       0.00435317      -0.00110729
H        0.58304277      -2.12325807      -0.11704689      -0.00248080       0.00090499       0.00112888
19
Properties=species:S:1:pos:R:3:dft_forces:R:3 pbc="F F F"
C        1.45000394       2.10241430      -6.04174733       0.00000000       0.00000000       0.00000000
O        0.77512469       0.86031008      -5.87904101       0.00000000       0.00000000       0.00000000
H        1.58126864       2.24042773      -7.11451017       0.00000000       0.00000000       0.00000000
H        0.86858339       2.94610276      -5.65063907       0.00000000       0.00000000       0.00000000
H        2.43859357       2.10403442      -5.56686456       0.00000000       0.00000000       0.00000000
C        0.00000000       0.00000000       0.00000000      -0.00108204       0.00086374      -0.00209357
C        0.43843644       1.29440395       0.73362715      -0.00040663      -0.00117288      -0.00135590
C       -1.50345037      -0.29111227       0.24682800      -0.00095584       0.00064716      -0.00394339
C        0.87706100      -1.20698883       0.42343691       0.00218757       0.00031066       0.00346781
H        0.14347762       0.15924566      -1.08822596      -0.00640769       0.00464176      -0.00181934
H       -0.16592287       2.15907855       0.40841877       0.00309124       0.00378154       0.00221108
H        1.49996844       1.52628438       0.53838113       0.00077123      -0.00288225       0.00129627
H        0.30979587       1.18389945       1.82652879       0.00321323      -0.00580988      -0.00102680
H       -1.69406055      -0.46195175       1.32241694       0.00742015      -0.00280961      -0.00406416
H       -2.13220263       0.55707233      -0.07633984      -0.00275299       0.00162725      -0.00330017
H       -1.83316245      -1.18982492      -0.30275602       0.00028069      -0.00573384       0.00396530
H        0.77098940      -1.40368452       1.50619761      -0.00656292       0.00127818       0.00664127
H        1.94528003      -1.01696845       0.21786460       0.00368479       0.00435317      -0.00110729
H        0.58304277      -2.12325807      -0.11704689      -0.00248080       0.00090499       0.00112888
19
Properties=species:S:1:pos:R:3:dft_forces:R:3 pbc="F F F"
C        1.40783261       2.05560839      -5.72189302       0.00000000       0.00000000       0.00000000
O        0.73295336       0.81350417      -5.55918669       0.00000000       0.00000000       0.00000000
H        1.53909731       2.19362182      -6.79465585       0.00000000       0.00000000       0.00000000
H        0.82641206       2.89929684      -5.33078475       0.00000000       0.00000000       0.00000000
H        2.39642224       2.05722850      -5.24701024       0.00000000       0.00000000       0.00000000
C        0.00000000       0.00000000       0.00000000      -0.00108204       0.00086374      -0.00209357
C        0.43843644       1.29440395       0.73362715      -0.00040663      -0.00117288      -0.00135590
C       -1.50345037      -0.29111227       0.24682800      -0.00095584       0.00064716      -0.00394339
C        0.87706100      -1.20698883       0.42343691       0.00218757       0.00031066       0.00346781
H        0.14347762       0.15924566      -1.08822596      -0.00640769       0.00464176      -0.00181934
H       -0.16592287       2.15907855       0.40841877       0.00309124       0.00378154       0.00221108
H        1.49996844       1.52628438       0.53838113       0.00077123      -0.00288225       0.00129627
H        0.30979587       1.18389945       1.82652879       0.00321323      -0.00580988      -0.00102680
H       -1.69406055      -0.46195175       1.32241694       0.00742015      -0.00280961      -0.00406416
H       -2.13220263       0.55707233      -0.07633984      -0.00275299       0.00162725      -0.00330017
H       -1.83316245      -1.18982492      -0.30275602       0.00028069      -0.00573384       0.00396530
H        0.77098940      -1.40368452       1.50619761      -0.00656292       0.00127818       0.00664127
H        1.94528003      -1.01696845       0.21786460       0.00368479       0.00435317      -0.00110729
H        0.58304277      -2.12325807      -0.11704689      -0.00248080       0.00090499       0.00112888
19
Properties=species:S:1:pos:R:3:dft_forces:R:3 pbc="F F F"
C        1.36566128       2.00880247      -5.40203870       0.00000000       0.00000000       0.00000000
O        0.69078203       0.76669825      -5.23933237       0.00000000       0.00000000       0.00000000
H        1.49692598       2.14681590      -6.47480153       0.00000000       0.00000000       0.00000000
H        0.78424073       2.85249093      -5.01093043       0.00000000       0.00000000       0.00000000
H        2.35425091       2.01042259      -4.92715592       0.00000000       0.00000000       0.00000000
C        0.00000000       0.00000000       0.00000000      -0.00108204       0.00086374      -0.00209357
C        0.43843644       1.29440395       0.73362715      -0.00040663      -0.00117288      -0.00135590
C       -1.50345037      -0.29111227       0.24682800      -0.00095584       0.00064716      -0.00394339
C        0.87706100      -1.20698883       0.42343691       0.00218757       0.00031066       0.00346781
H        0.14347762       0.15924566      -1.08822596      -0.00640769       0.00464176      -0.00181934
H       -0.16592287       2.15907855       0.40841877       0.00309124       0.00378154       0.00221108
H        1.49996844       1.52628438       0.53838113       0.00077123      -0.00288225       0.00129627
H        0.30979587       1.18389945       1.82652879       0.00321323      -0.00580988      -0.00102680
H       -1.69406055      -0.46195175       1.32241694       0.00742015      -0.00280961      -0.00406416
H       -2.13220263       0.55707233      -0.07633984      -0.00275299       0.00162725      -0.00330017
H       -1.83316245      -1.18982492      -0.30275602       0.00028069      -0.00573384       0.00396530
H        0.77098940      -1.40368452       1.50619761      -0.00656292       0.00127818       0.00664127
H        1.94528003      -1.01696845       0.21786460       0.00368479       0.00435317      -0.00110729
H        0.58304277      -2.12325807      -0.11704689      -0.00248080       0.00090499       0.00112888
19
Properties=species:S:1:pos:R:3:dft_forces:R:3 pbc="F F F"
C        1.32348995       1.96199656      -5.08218438       0.00000000       0.00000000       0.00000000
O        0.64861070       0.71989234      -4.91947805       0.00000000       0.00000000       0.00000000
H        1.45475465       2.10000999      -6.15494721       0.00000000       0.00000000       0.00000000
H        0.74206940       2.80568501      -4.69107611       0.00000000       0.00000000       0.00000000
H        2.31207957       1.96361667      -4.60730160       0.00000000       0.00000000       0.00000000
C        0.00000000       0.00000000       0.00000000      -0.00108204       0.00086374      -0.00209357
C        0.43843644       1.29440395       0.73362715      -0.00040663      -0.00117288      -0.00135590
C       -1.50345037      -0.29111227       0.24682800      -0.00095584       0.00064716      -0.00394339
C        0.87706100      -1.20698883       0.42343691       0.00218757       0.00031066       0.00346781
H        0.14347762       0.15924566      -1.08822596      -0.00640769       0.00464176      -0.00181934
H       -0.16592287       2.15907855       0.40841877       0.00309124       0.00378154       0.00221108
H        1.49996844       1.52628438       0.53838113       0.00077123      -0.00288225       0.00129627
H        0.30979587       1.18389945       1.82652879       0.00321323      -0.00580988      -0.00102680
H       -1.69406055      -0.46195175       1.32241694       0.00742015      -0.00280961      -0.00406416
H       -2.13220263       0.55707233      -0.07633984      -0.00275299       0.00162725      -0.00330017
H       -1.83316245      -1.18982492      -0.30275602       0.00028069      -0.00573384       0.00396530
H        0.77098940      -1.40368452       1.50619761      -0.00656292       0.00127818       0.00664127
H        1.94528003      -1.01696845       0.21786460       0.00368479       0.00435317      -0.00110729
H        0.58304277      -2.12325807      -0.11704689      -0.00248080       0.00090499       0.00112888
19
Properties=species:S:1:pos:R:3:dft_forces:R:3 pbc="F F F"
C        1.28131862       1.91519064      -4.76233006       0.00000000       0.00000000       0.00000000
O        0.60643937       0.67308642      -4.59962373       0.00000000       0.00000000       0.00000000
H        1.41258332       2.05320407      -5.83509289       0.00000000       0.00000000       0.00000000
H        0.69989807       2.75887910      -4.37122179       0.00000000       0.00000000       0.00000000
H        2.26990824       1.91681076      -4.28744729       0.00000000       0.00000000       0.00000000
C        0.00000000       0.00000000       0.00000000      -0.00108204       0.00086374      -0.00209357
C        0.43843644       1.29440395       0.73362715      -0.00040663      -0.00117288      -0.00135590
C       -1.50345037      -0.29111227       0.24682800      -0.00095584       0.00064716      -0.00394339
C        0.87706100      -1.20698883       0.42343691       0.00218757       0.00031066       0.00346781
H        0.14347762       0.15924566      -1.08822596      -0.00640769       0.00464176      -0.00181934
H       -0.16592287       2.15907855       0.40841877       0.00309124       0.00378154       0.00221108
H        1.49996844       1.52628438       0.53838113       0.00077123      -0.00288225       0.00129627
H        0.30979587       1.18389945       1.82652879       0.00321323      -0.00580988      -0.00102680
H       -1.69406055      -0.46195175       1.32241694       0.00742015      -0.00280961      -0.00406416
H       -2.13220263       0.55707233      -0.07633984      -0.00275299       0.00162725      -0.00330017
H       -1.83316245      -1.18982492      -0.30275602       0.00028069      -0.00573384       0.00396530
H        0.77098940      -1.40368452       1.50619761      -0.00656292       0.00127818       0.00664127
H        1.94528003      -1.01696845       0.21786460       0.00368479       0.00435317      -0.00110729
H        0.58304277      -2.12325807      -0.11704689      -0.00248080       0.00090499       0.00112888
19
Properties=species:S:1:pos:R:3:dft_forces:R:3 pbc="F F F"
C        1.23914728       1.86838473      -4.44247574       0.00000000       0.00000000       0.00000000
O        0.56426804       0.62628051      -4.27976941       0.00000000       0.00000000       0.00000000
H        1.37041199       2.00639816      -5.51523857       0.00000000       0.00000000       0.00000000
H        0.65772674       2.71207318      -4.05136748       0.00000000       0.00000000       0.00000000
H        2.22773691       1.87000484      -3.96759297       0.00000000       0.00000000       0.00000000
C        0.00000000       0.00000000       0.00000000      -0.00108204       0.00086374      -0.00209357
C        0.43843644       1.29440395       0.73362715      -0.00040663      -0.00117288      -0.00135590
C       -1.50345037      -0.29111227       0.24682800      -0.00095584       0.00064716      -0.00394339
C        0.87706100      -1.20698883       0.42343691       0.00218757       0.00031066       0.00346781
H        0.14347762       0.15924566      -1.08822596      -0.00640769       0.00464176      -0.00181934
H       -0.16592287       2.15907855       0.40841877       0.00309124       0.00378154       0.00221108
H        1.49996844       1.52628438       0.53838113       0.00077123      -0.00288225       0.00129627
H        0.30979587       1.18389945       1.82652879       0.00321323      -0.00580988      -0.00102680
H       -1.69406055      -0.46195175       1.32241694       0.00742015      -0.00280961      -0.00406416
H       -2.13220263       0.55707233      -0.07633984      -0.00275299       0.00162725      -0.00330017
H       -1.83316245      -1.18982492      -0.30275602       0.00028069      -0.00573384       0.00396530
H        0.77098940      -1.40368452       1.50619761      -0.00656292       0.00127818       0.00664127
H        1.94528003      -1.01696845       0.21786460       0.00368479       0.00435317      -0.00110729
H        0.58304277      -2.12325807      -0.11704689      -0.00248080       0.00090499       0.00112888
19
Properties=species:S:1:pos:R:3:dft_forces:R:3 pbc="F F F"
C        1.19697595       1.82157881      -4.12262142       0.00000000       0.00000000       0.00000000
O        0.52209671       0.57947459      -3.95991509       0.00000000       0.00000000       0.00000000
H        1.32824066       1.95959224      -5.19538425       0.00000000       0.00000000       0.00000000
H        0.61555541       2.66526727      -3.73151316       0.00000000       0.00000000       0.00000000
H        2.18556558       1.82319893      -3.64773865       0.00000000       0.00000000       0.00000000
C        0.00000000       0.00000000       0.00000000      -0.00108204       0.00086374      -0.00209357
C        0.43843644       1.29440395       0.73362715      -0.00040663      -0.00117288      -0.00135590
C       -1.50345037      -0.29111227       0.24682800      -0.00095584       0.00064716      -0.00394339
C        0.87706100      -1.20698883       0.42343691       0.00218757       0.00031066       0.00346781
H        0.14347762       0.15924566      -1.08822596      -0.00640769       0.00464176      -0.00181934
H       -0.16592287       2.15907855       0.40841877       0.00309124       0.00378154       0.00221108
H        1.49996844       1.52628438       0.53838113       0.00077123      -0.00288225       0.00129627
H        0.30979587       1.18389945       1.82652879       0.00321323      -0.00580988      -0.00102680
H       -1.69406055      -0.46195175       1.32241694       0.00742015      -0.00280961      -0.00406416
H       -2.13220263       0.55707233      -0.07633984      -0.00275299       0.00162725      -0.00330017
H       -1.83316245      -1.18982492      -0.30275602       0.00028069      -0.00573384       0.00396530
H        0.77098940      -1.40368452       1.50619761      -0.00656292       0.00127818       0.00664127
H        1.94528003      -1.01696845       0.21786460       0.00368479       0.00435317      -0.00110729
H        0.58304277      -2.12325807      -0.11704689      -0.00248080       0.00090499       0.00112888
19
Properties=species:S:1:pos:R:3:dft_forces:R:3 pbc="F F F"
C        1.15480462       1.77477290      -3.80276710       0.00000000       0.00000000       0.00000000
O        0.47992538       0.53266868      -3.64006078       0.00000000       0.00000000       0.00000000
H        1.28606933       1.91278633      -4.87552994       0.00000000       0.00000000       0.00000000
H        0.57338408       2.61846135      -3.41165884       0.00000000       0.00000000       0.00000000
H        2.14339425       1.77639301      -3.32788433       0.00000000       0.00000000       0.00000000
C        0.00000000       0.00000000       0.00000000      -0.00108204       0.00086374      -0.00209357
C        0.43843644       1.29440395       0.73362715      -0.00040663      -0.00117288      -0.00135590
C       -1.50345037      -0.29111227       0.24682800      -0.00095584       0.00064716      -0.00394339
C        0.87706100      -1.20698883       0.42343691       0.00218757       0.00031066       0.00346781
H        0.14347762       0.15924566      -1.08822596      -0.00640769       0.00464176      -0.00181934
H       -0.16592287       2.15907855       0.40841877       0.00309124       0.00378154       0.00221108
H        1.49996844       1.52628438       0.53838113       0.00077123      -0.00288225       0.00129627
H        0.30979587       1.18389945       1.82652879       0.00321323      -0.00580988      -0.00102680
H       -1.69406055      -0.46195175       1.32241694       0.00742015      -0.00280961      -0.00406416
H       -2.13220263       0.55707233      -0.07633984      -0.00275299       0.00162725      -0.00330017
H       -1.83316245      -1.18982492      -0.30275602       0.00028069      -0.00573384       0.00396530
H        0.77098940      -1.40368452       1.50619761      -0.00656292       0.00127818       0.00664127
H        1.94528003      -1.01696845       0.21786460       0.00368479       0.00435317      -0.00110729
H        0.58304277      -2.12325807      -0.11704689      -0.00248080       0.00090499       0.00112888
19
Properties=species:S:1:pos:R:3:dft_forces:R:3 pbc="F F F"
C        1.11263329       1.72796698      -3.48291278       0.00000000       0.00000000       0.00000000
O        0.43775405       0.48586276      -3.32020646       0.00000000       0.00000000       0.00000000
H        1.24389800       1.86598041      -4.55567562       0.00000000       0.00000000       0.00000000
H        0.53121275       2.57165543      -3.09180452       0.00000000       0.00000000       0.00000000
H        2.10122292       1.72958710      -3.00803001       0.00000000       0.00000000       0.00000000
C        0.00000000       0.00000000       0.00000000      -0.00108204       0.00086374      -0.00209357
C        0.43843644       1.29440395       0.73362715      -0.00040663      -0.00117288      -0.00135590
C       -1.50345037      -0.29111227       0.24682800      -0.00095584       0.00064716      -0.00394339
C        0.87706100      -1.20698883       0.42343691       0.00218757       0.00031066       0.00346781
H        0.14347762       0.15924566      -1.08822596      -0.00640769       0.00464176      -0.00181934
H       -0.16592287       2.15907855       0.40841877       0.00309124       0.00378154       0.00221108
H        1.49996844       1.52628438       0.53838113       0.00077123      -0.00288225       0.00129627
H        0.30979587       1.18389945       1.82652879       0.00321323      -0.00580988      -0.00102680
H       -1.69406055      -0.46195175       1.32241694       0.00742015      -0.00280961      -0.00406416
H       -2.13220263       0.55707233      -0.07633984      -0.00275299       0.00162725      -0.00330017
H       -1.83316245      -1.18982492      -0.30275602       0.00028069      -0.00573384       0.00396530
H        0.77098940      -1.40368452       1.50619761      -0.00656292       0.00127818       0.00664127
H        1.94528003      -1.01696845       0.21786460       0.00368479       0.00435317      -0.00110729
H        0.58304277      -2.12325807      -0.11704689      -0.00248080       0.00090499       0.00112888
19
Properties=species:S:1:pos:R:3:dft_forces:R:3 pbc="F F F"
C        1.07046196       1.68116107      -3.16305847       0.00000000       0.00000000       0.00000000
O        0.39558272       0.43905684      -3.00035214       0.00000000       0.00000000       0.00000000
H        1.20172666       1.81917449      -4.23582130       0.00000000       0.00000000       0.00000000
H        0.48904142       2.52484952      -2.77195020       0.00000000       0.00000000       0.00000000
H        2.05905159       1.68278118      -2.68817569       0.00000000       0.00000000       0.00000000
C        0.00000000       0.00000000       0.00000000      -0.00108204       0.00086374      -0.00209357
C        0.43843644       1.29440395       0.73362715      -0.00040663      -0.00117288      -0.00135590
C       -1.50345037      -0.29111227       0.24682800      -0.00095584       0.00064716      -0.00394339
C        0.87706100      -1.20698883       0.42343691       0.00218757       0.00031066       0.00346781
H        0.14347762       0.15924566      -1.08822596      -0.00640769       0.00464176      -0.00181934
H       -0.16592287       2.15907855       0.40841877       0.00309124       0.00378154       0.00221108
H        1.49996844       1.52628438       0.53838113       0.00077123      -0.00288225       0.00129627
H        0.30979587       1.18389945       1.82652879       0.00321323      -0.00580988      -0.00102680
H       -1.69406055      -0.46195175       1.32241694       0.00742015      -0.00280961      -0.00406416
H       -2.13220263       0.55707233      -0.07633984      -0.00275299       0.00162725      -0.00330017
H       -1.83316245      -1.18982492      -0.30275602       0.00028069      -0.00573384       0.00396530
H        0.77098940      -1.40368452       1.50619761      -0.00656292       0.00127818       0.00664127
H        1.94528003      -1.01696845       0.21786460       0.00368479       0.00435317      -0.00110729
H        0.58304277      -2.12325807      -0.11704689      -0.00248080       0.00090499       0.00112888
19
Properties=species:S:1:pos:R:3:dft_forces:R:3 pbc="F F F"
C        1.02829063       1.63435515      -2.84320415       0.00000000       0.00000000       0.00000000
O        0.35341139       0.39225093      -2.68049782       0.00000000       0.00000000       0.00000000
H        1.15955533       1.77236858      -3.91596698       0.00000000       0.00000000       0.00000000
H        0.44687009       2.47804360      -2.45209588       0.00000000       0.00000000       0.00000000
H        2.01688026       1.63597527      -2.36832137       0.00000000       0.00000000       0.00000000
C        0.00000000       0.00000000       0.00000000      -0.00108204       0.00086374      -0.00209357
C        0.43843644       1.29440395       0.73362715      -0.00040663      -0.00117288      -0.00135590
C       -1.50345037      -0.29111227       0.24682800      -0.00095584       0.00064716      -0.00394339
C        0.87706100      -1.20698883       0.42343691       0.00218757       0.00031066       0.00346781
H        0.14347762       0.15924566      -1.08822596      -0.00640769       0.00464176      -0.00181934
H       -0.16592287       2.15907855       0.40841877       0.00309124       0.00378154       0.00221108
H        1.49996844       1.52628438       0.53838113       0.00077123      -0.00288225       0.00129627
H        0.30979587       1.18389945       1.82652879       0.00321323      -0.00580988      -0.00102680
H       -1.69406055      -0.46195175       1.32241694       0.00742015      -0.00280961      -0.00406416
H       -2.13220263       0.55707233      -0.07633984      -0.00275299       0.00162725      -0.00330017
H       -1.83316245      -1.18982492      -0.30275602       0.00028069      -0.00573384       0.00396530
H        0.77098940      -1.40368452       1.50619761      -0.00656292       0.00127818       0.00664127
H        1.94528003      -1.01696845       0.21786460       0.00368479       0.00435317      -0.00110729
H        0.58304277      -2.12325807      -0.11704689      -0.00248080       0.00090499       0.00112888
19
Properties=species:S:1:pos:R:3:dft_forces:R:3 pbc="F F F"
C        0.98611930       1.58754924      -2.52334983       0.00000000       0.00000000       0.00000000
O        0.31124006       0.34544501      -2.36064350       0.00000000       0.00000000       0.00000000
H        1.11738400       1.72556266      -3.59611266       0.00000000       0.00000000       0.00000000
H        0.40469876       2.43123769      -2.13224156       0.00000000       0.00000000       0.00000000
H        1.97470893       1.58916935      -2.04846706       0.00000000       0.00000000       0.00000000
C        0.00000000       0.00000000       0.00000000      -0.00108204       0.00086374      -0.00209357
C        0.43843644       1.29440395       0.73362715      -0.00040663      -0.00117288      -0.00135590
C       -1.50345037      -0.29111227       0.24682800      -0.00095584       0.00064716      -0.00394339
C        0.87706100      -1.20698883       0.42343691       0.00218757       0.00031066       0.00346781
H        0.14347762       0.15924566      -1.08822596      -0.00640769       0.00464176      -0.00181934
H       -0.16592287       2.15907855       0.40841877       0.00309124       0.00378154       0.00221108