5
Lattice="50.0 0.0 0.0 0.0 50.0 0.0 0.0 0.0 50.0" Properties=species:S:1:pos:R:3:dft_forces:R:3 smiles=C config_type=methane_mol dft_energy=-1100.3147255050371 pbc="F F F"
C       -0.00288992       0.00673045       0.01609493      -1.37149324      -1.08622968      -0.73403730
H       -0.62937464       0.91258898      -0.15163222      -0.33038031      -0.61799166       0.43275893
H       -0.30951985      -0.87622563      -0.61708821      -0.55474973       0.67072732       0.43682850
H        0.07177995      -0.37169216       1.05611860       0.20354094       0.58877819      -0.15657131
H        0.89847992       0.25646142      -0.47813079       2.05378971       0.44591403       0.02161661
5
Lattice="50.0 0.0 0.0 0.0 50.0 0.0 0.0 0.0 50.0" Properties=species:S:1:pos:R:3:dft_forces:R:3 smiles=C config_type=methane_mol dft_energy=-1100.373539332053 pbc="F F F"
C        0.00578696      -0.00037052      -0.00372074       0.44684051       0.61374569       0.72946267
H       -0.64786658       0.88106206      -0.04358991      -0.46329215      -0.07163631      -0.33838006
H       -0.37745680      -0.86925254      -0.51170131      -0.52663410      -0.39464390      -1.00066395
H       -0.02937903      -0.33627097       1.06154780       0.91225411       0.42764308      -0.22307898
H        0.98266926       0.33020883      -0.46086299      -0.36827016      -0.57381615       0.83215042
5
Lattice="50.0 0.0 0.0 0.0 50.0 0.0 0.0 0.0 50.0" Properties=species:S:1:pos:R:3:dft_forces:R:3 smiles=C config_type=methane_mol dft_energy=-1100.4526835662355 pbc="F F F"
C        0.00437471       0.00030727       0.00004827       0.43078090       0.73028587       0.75886009
H       -0.73668638       0.80485520      -0.09195331       0.29700206       0.61623207       0.03900591
H       -0.42093262      -0.77488061      -0.59332718      -0.29115958      -1.44323099      -0.56952949
H        0.08554601      -0.27800844       1.07092798      -0.06992156      -0.14790936      -0.24673857
H        1.01686900       0.24570446      -0.38516632      -0.36712752       0.24658659       0.01811936
5
Lattice="50.0 0.0 0.0 0.0 50.0 0.0 0.0 0.0 50.0" Properties=species:S:1:pos:R:3:dft_forces:R:3 smiles=C config_type=methane_mol dft_energy=-1100.3948148998008 pbc="F F F"
C       -0.00098089       0.01234526      -0.01788130      -0.16325844      -2.25365090       1.60175768
H       -0.67821785       0.85284061      -0.03508944      -0.49916047       0.56067198      -0.24924204
H       -0.42143550      -0.92393226      -0.49669817       0.42517762       1.05670403      -0.32717635
H        0.09316939      -0.34817742       1.04687516      -0.10976605       0.55242038      -0.35290745
H        1.01509919       0.27349586      -0.30095512       0.34590758       0.08429523      -0.67182308
5
Lattice="50.0 0.0 0.0 0.0 50.0 0.0 0.0 0.0 50.0" Properties=species:S:1:pos:R:3:dft_forces:R:3 smiles=C config_type=methane_mol dft_energy=-1100.4131489544072 pbc="F F F"
C       -0.00768724      -0.00192530       0.00835536       2.26908460      -0.17397645      -1.90357639
H       -0.62406417       0.85727604      -0.11003524      -1.13823072       0.99593798       0.02316377
H       -0.38430313      -0.84957796      -0.58689505      -0.09206412       0.04416547      -0.08777610
H        0.07828876      -0.30701365       1.02954573       0.19156573      -0.16894827       1.18452426
H        1.01860447       0.32359103      -0.43112011      -1.22897790      -0.69414375       0.78355296
5
Lattice="50.0 0.0 0.0 0.0 50.0 0.0 0.0 0.0 50.0" Properties=species:S:1:pos:R:3:dft_forces:R:3 smiles=C config_type=methane_mol dft_energy=-1100.4310555288876 pbc="F F F"
C       -0.00117367       0.00926464       0.00079938       0.12014289      -0.45854362      -1.00400145
H       -0.70465468       0.88912998      -0.10504390       0.53881687      -0.76794419       0.23278345
H       -0.40545457      -0.90541479      -0.54015464       0.32959226       1.02560671      -0.04090114
H        0.08604397      -0.37170183       1.02362319       0.02997585       0.47308259       0.53276110
H        1.03497696       0.27892047      -0.38689187      -1.01851174      -0.26936482       0.28064021
5
Lattice="50.0 0.0 0.0 0.0 50.0 0.0 0.0 0.0 50.0" Properties=species:S:1:pos:R:3:dft_forces:R:3 smiles=C config_type=methane_mol dft_energy=-1100.4235336944596 pbc="F F F"
C        0.00373279       0.00197805       0.00109446      -1.49953839      -0.36412567       1.56266553
H       -0.67171814       0.84846579      -0.12919714      -0.33866784       0.36323219       0.30063631
H       -0.39870977      -0.81434239      -0.56676281      -0.32409422      -0.90705510      -0.65194759
H        0.08957594      -0.33392018       1.06566973      -0.07200656       0.41284579      -0.43039696
H        0.93329969       0.27755926      -0.38169599       2.23475893       0.49927093      -0.78184148
5
Lattice="50.0 0.0 0.0 0.0 50.0 0.0 0.0 0.0 50.0" Properties=species:S:1:pos:R:3:dft_forces:R:3 smiles=C config_type=methane_mol dft_energy=-1100.405308858547 pbc="F F F"
C       -0.00218826       0.00226893      -0.01346459       0.04711858       0.38147437       1.78198005
H       -0.71831642       0.88505646      -0.08828656       0.78542395      -0.80106568       0.18764952
H       -0.43860800      -0.86681936      -0.52844725       0.30789640       0.03655895      -0.43751550
H        0.14119352      -0.33324780       1.07547630      -0.56527794       0.56623178      -0.96773769
H        1.03873317       0.28930603      -0.29724131      -0.57650442      -0.18033350      -0.56376314
5
Lattice="50.0 0.0 0.0 0.0 50.0 0.0 0.0 0.0 50.0" Properties=species:S:1:pos:R:3:dft_forces:R:3 smiles=C config_type=methane_mol dft_energy=-1100.400321433238 pbc="F F F"
C       -0.00935496      -0.00238174      -0.00348232       2.23836692       1.65072102       1.45758051
H       -0.66435400       0.85483631      -0.12005490      -0.41391534       0.49147373       0.26253069
H       -0.39088150      -0.80071812      -0.54109379      -0.80831063      -2.10917928      -1.54855050
H        0.14504492      -0.31741361       1.04637155      -0.45227830       0.21189000       0.04875757
H        1.01859046       0.29300813      -0.34267085      -0.56387964      -0.24125254      -0.22122499
5
Lattice="50.0 0.0 0.0 0.0 50.0 0.0 0.0 0.0 50.0" Properties=species:S:1:pos:R:3:dft_forces:R:3 smiles=C config_type=methane_mol dft_energy=-1100.4875716398014 pbc="F F F"
C        0.00186283       0.00251492      -0.00257258       1.05578381      -0.53333020       0.61896582
H       -0.67962061       0.83499477      -0.07565168      -0.50953230       0.74730619      -0.11513957
H       -0.41361586      -0.84387152      -0.55996791       0.01223168      -0.18344267      -0.31907963
H        0.04996968      -0.31615455       1.07592730       0.24302596       0.29465298      -0.61399949
H        1.01799372       0.29639659      -0.40859605      -0.80106377      -0.32212121       0.42894423
5
Lattice="50.0 0.0 0.0 0.0 50.0 0.0 0.0 0.0 50.0" Properties=species:S:1:pos:R:3:dft_forces:R:3 smiles=C config_type=methane_mol dft_energy=-1100.4693430601192 pbc="F F F"
C        0.00108811       0.00035020       0.00679794       0.27703129      -1.18830789      -1.31938725
H       -0.65222374       0.83349599      -0.08449930      -1.00722145       1.17550766      -0.17353383
H       -0.39304212      -0.84300183      -0.61988032       0.08919189       0.34119699       0.48074514
H        0.05970637      -0.27530108       1.04576934       0.26232872      -0.37319318       0.83347056
H        0.96951967       0.28196832      -0.42133649       0.37927252       0.04695697       0.17848856
5
Lattice="50.0 0.0 0.0 0.0 50.0 0.0 0.0 0.0 50.0" Properties=species:S:1:pos:R:3:dft_forces:R:3 smiles=C config_type=methane_mol dft_energy=-1100.3660391573985 pbc="F F F"
C       -0.00668480      -0.00443387       0.00854200      -0.37724909       0.32192533      -1.38095385
H       -0.63242065       0.87526646      -0.18626420      -0.49678721       0.12061953       0.76916480
H       -0.42293134      -0.82696750      -0.59109587       0.26578144      -0.19727757      -0.11033565
H        0.17523405      -0.31948976       1.00921912      -0.49599770      -0.11728104       1.52986935
H        0.95670265       0.32535874      -0.33258823       1.10483633      -0.12391303      -0.80799816
5
Lattice="50.0 0.0 0.0 0.0 50.0 0.0 0.0 0.0 50.0" Properties=species:S:1:pos:R:3:dft_forces:R:3 smiles=C config_type=methane_mol dft_energy=-1100.4386158764883 pbc="F F F"
C       -0.00401474       0.00781710      -0.00471289       1.08537459      -0.88445831      -0.41280088
H       -0.70436546       0.84120388      -0.00385507      -0.12735439       0.49406841      -0.65674332
H       -0.35244066      -0.87520867      -0.58885336      -0.29401102       0.39735276       0.22267337
H        0.06240781      -0.27061280       1.04692627       0.26369765      -0.39177933       0.46381208
H        1.03916355       0.21280127      -0.39700038      -0.92758237       0.38481627       0.38237909
5
Lattice="50.0 0.0 0.0 0.0 50.0 0.0 0.0 0.0 50.0" Properties=species:S:1:pos:R:3:dft_forces:R:3 smiles=C config_type=methane_mol dft_energy=-1100.4519011630764 pbc="F F F"
C        0.00625553      -0.00387299       0.00357912      -0.90731367       0.78775707       0.98139313
H       -0.72685347       0.84233782      -0.11329340       0.66865722      -0.19866558       0.24026156
H       -0.41366612      -0.77888545      -0.62715134      -0.13824654      -0.92511105      -0.02427118
H        0.08471542      -0.27761994       1.10640714      -0.09522536       0.04245318      -1.16313537
H        0.97818951       0.26165091      -0.40755650       0.47175861       0.29602570      -0.03414084
5
Lattice="50.0 0.0 0.0 0.0 50.0 0.0 0.0 0.0 50.0" Properties=species:S:1:pos:R:3:dft_forces:R:3 smiles=C config_type=methane_mol dft_energy=-1100.4560388819446 pbc="F F F"
C        0.00154073       0.00147557       0.00408835       0.53582784      -0.11977820      -0.35271019
H       -0.73345726       0.80446306      -0.08529806       0.18545520       0.72713102      -0.06556358
H       -0.40754711      -0.79093991      -0.63655874       0.00356552      -0.58852594       0.30523474
H        0.09616638      -0.25705966       1.07151622      -0.11045760      -0.37498611      -0.07591537
H        1.02340394       0.22728641      -0.39731961      -0.61507206       0.35780367       0.18940312
5
Lattice="50.0 0.0 0.0 0.0 50.0 0.0 0.0 0.0 50.0" Properties=species:S:1:pos:R:3:dft_forces:R:3 smiles=C config_type=methane_mol dft_energy=-1100.492860335889 pbc="F F F"
C       -0.00105828      -0.00339004      -0.00597011      -0.03124303       0.50457528       0.89135290
H       -0.69870836       0.84732649      -0.07441478       0.13285656       0.18159892      -0.04164120
H       -0.42016120      -0.81829431      -0.58867248       0.00442215      -0.59682841      -0.21129191
H        0.12412379      -0.26064097       1.06354158      -0.33961912      -0.25732308      -0.08391998
H        1.00428314       0.27333773      -0.32825703       0.23302930       0.17019261      -0.55428315
5
Lattice="50.0 0.0 0.0 0.0 50.0 0.0 0.0 0.0 50.0" Properties=species:S:1:pos:R:3:dft_forces:R:3 smiles=C config_type=methane_mol dft_energy=-1100.4843820122353 pbc="F F F"
C       -0.00375040       0.00850732      -0.00486134       0.68134705      -1.93519943       0.46792675
H       -0.67735670       0.84108745      -0.04554614      -0.62918930       0.87456749      -0.34003814
H       -0.37741121      -0.88238028      -0.58722148       0.03186325       0.70512484       0.34201848
H        0.08772788      -0.29974240       1.06740513      -0.01529161       0.07681412      -0.42432705
H        1.00865630       0.24099550      -0.37565227      -0.06929718       0.27950512      -0.04596989
5
Lattice="50.0 0.0 0.0 0.0 50.0 0.0 0.0 0.0 50.0" Properties=species:S:1:pos:R:3:dft_forces:R:3 smiles=C config_type=methane_mol dft_energy=-1100.4512255512466 pbc="F F F"
C       -0.00386374      -0.00479833      -0.00874027       1.26465025       0.36042016       1.46917563
H       -0.65326385       0.84595927      -0.01659047      -0.81428641       0.93345903      -0.55032588
H       -0.37126291      -0.82761070      -0.58113773      -0.60785626      -0.94694582      -0.56247925
H        0.07021637      -0.23863665       1.07715370       0.15094116      -0.41012159      -0.33326084
H        0.99727666       0.27879884      -0.37421884       0.00695789       0.06376486      -0.02433212
5
Lattice="50.0 0.0 0.0 0.0 50.0 0.0 0.0 0.0 50.0" Properties=species:S:1:pos:R:3:dft_forces:R:3 smiles=C config_type=methane_mol dft_energy=-1100.3357906972328 pbc="F F F"
C        0.00363824       0.00656962      -0.00040304       0.07145937      -1.22182845      -0.83358008
H       -0.71023179       0.84909323       0.01569902       0.14407946       0.12152548      -0.87172808
H       -0.35921685      -0.89546622      -0.62780711      -0.02613709       1.23499788       0.96701000
H       -0.00022708      -0.25428423       1.07570927       0.71056909      -0.42763889      -0.16647137
H        1.02324745       0.22370685      -0.45774027      -0.89967736       0.29260861       0.90401657
5
Lattice="50.0 0.0 0.0 0.0 50.0 0.0 0.0 0.0 50.0" Properties=species:S:1:pos:R:3:dft_forces:R:3 smiles=C config_type=methane_mol dft_energy=-1100.4835100916707 pbc="F F F"
C        0.00392133      -0.00227744       0.00548595      -0.91729294      -0.02542829       0.47639482
H       -0.68840595       0.84014586      -0.12306642      -0.05800135       0.30771156       0.24423871
H       -0.40679559      -0.79674695      -0.62005886      -0.07651746      -0.61796825       0.04095005
H        0.09031311      -0.28820119       1.08040228      -0.08399210       0.01529600      -0.47705082
H        0.95508866       0.27327373      -0.40159218       1.13593884       0.32368445      -0.28462209
5
Lattice="50.0 0.0 0.0 0.0 50.0 0.0 0.0 0.0 50.0" Properties=species:S:1:pos:R:3:dft_forces:R:3 smiles=C config_type=methane_mol dft_energy=-1100.4388873225812 pbc="F F F"
C       -0.00599636       0.00082186       0.00558650      -0.39031057       0.17977555      -0.87483259
H       -0.67288509       0.93036177      -0.13433460       0.55073658      -1.35956482       0.47729823
H       -0.37933338      -0.88889801      -0.59750209       0.16647220       0.94802091       0.43742522
H        0.13135284      -0.34014118       1.05092632      -0.30825991       0.37404911      -0.03297473
H        0.98924660       0.29021650      -0.38460170      -0.01831949      -0.14026550      -0.00651682
5
Lattice="50.0 0.0 0.0 0.0 50.0 0.0 0.0 0.0 50.0" Properties=species:S:1:pos:R:3:dft_forces:R:3 smiles=C config_type=methane_mol dft_energy=-1100.3593664319853 pbc="F F F"
C        0.00116707       0.00559997      -0.00359242       0.08887892      -0.29311163       0.16185228
H       -0.67823741       0.88305026      -0.14758841       0.11876509      -0.48133152       0.59629825
H       -0.45944239      -0.88921139      -0.49221594       0.60461003       0.56297812      -0.65071341
H        0.10012783      -0.40392225       1.03120033      -0.14230728       0.96979328       0.01675022
H        1.02057107       0.34468609      -0.34753101      -0.66975350      -0.75334843      -0.12296137
5
Lattice="50.0 0.0 0.0 0.0 50.0 0.0 0.0 0.0 50.0" Properties=species:S:1:pos:R:3:dft_forces:R:3 smiles=C config_type=methane_mol dft_energy=-1100.3779064831785 pbc="F F F"
C        0.01149108      -0.00267048       0.01456316      -0.84170452       0.72072910      -2.35693840
H       -0.72464744       0.81892434      -0.19266809       0.52746329       0.07233303       0.88138455
H       -0.49316093      -0.78436427      -0.60306222       0.83681519      -0.28097130       0.19612745
H        0.07992093      -0.32531836       1.03553349      -0.01235032      -0.03319859       1.01926425
H        0.99788446       0.32391261      -0.41228123      -0.50960396      -0.47529912       0.26080685
5
Lattice="50.0 0.0 0.0 0.0 50.0 0.0 0.0 0.0 50.0" Properties=species:S:1:pos:R:3:dft_forces:R:3 smiles=C config_type=methane_mol dft_energy=-1100.4555503026515 pbc="F F F"
C        0.00019421      -0.00095377      -0.00771276       1.45996340      -0.32591037       0.89944519
H       -0.68549388       0.82249284      -0.07301072      -0.53281123       0.99932689      -0.08021978
H       -0.45274582      -0.83390558      -0.55784401       0.33349496      -0.27188315      -0.29603188
H        0.08933671      -0.28897851       1.07391368      -0.09417921       0.08077939      -0.53015630
H        1.04351320       0.31309012      -0.35009609      -1.16709183      -0.47918529       0.00702869
5
Lattice="50.0 0.0 0.0 0.0 50.0 0.0 0.0 0.0 50.0" Properties=species:S:1:pos:R:3:dft_forces:R:3 smiles=C config_type=methane_mol dft_energy=-1100.451234174181 pbc="F F F"
C        0.00012967       0.00322830      -0.00522148      -1.44913524       0.21790614       1.58246041
H       -0.70189182       0.90006610      -0.09604917       0.67799956      -0.99709132       0.17470448
H       -0.38209327      -0.85932132      -0.55585334      -0.22083522      -0.14642355      -0.38486817
H        0.10730376      -0.33851721       1.07361950      -0.22629898       0.54016833      -0.80367207
H        0.97206448       0.26063565      -0.35844176       1.21822913       0.38780932      -0.56911385
5
Lattice="50.0 0.0 0.0 0.0 50.0 0.0 0.0 0.0 50.0" Properties=species:S:1:pos:R:3:dft_forces:R:3 smiles=C config_type=methane_mol dft_energy=-1100.4354578625118 pbc="F F F"
C       -0.00028016       0.01651914       0.00125556       0.42441022      -0.65426250      -0.11018593
H       -0.73086908       0.84443673      -0.10733346       0.40864501      -0.06213166       0.17139491
H       -0.37280927      -0.86296958      -0.52487236      -0.32189160      -0.21374697      -0.69116725
H        0.07924266      -0.39247886       1.02070888       0.05535165       0.62864338       0.39100711
H        1.02470003       0.21549935      -0.40240707      -0.56664816       0.30457008       0.24011944
5
Lattice="50.0 0.0 0.0 0.0 50.0 0.0 0.0 0.0 50.0" Properties=species:S:1:pos:R:3:dft_forces:R:3 smiles=C config_type=methane_mol dft_energy=-1100.4225788370463 pbc="F F F"
C       -0.01390781      -0.00587337      -0.00596532       2.47871367       1.02181248       0.53123223
H       -0.64685389       0.86775393      -0.02601146      -0.62833440       0.57666445      -0.49026081
H       -0.34286881      -0.83258389      -0.59369254      -0.73845056      -0.96596625      -0.52212593
H        0.11928307      -0.23177436       1.05445898      -0.12726125      -0.58104060       0.35400960
H        1.03309142       0.26792454      -0.36261407      -0.98525339      -0.05132336       0.12718006
5
Lattice="50.0 0.0 0.0 0.0 50.0 0.0 0.0 0.0 50.0" Properties=species:S:1:pos:R:3:dft_forces:R:3 smiles=C config_type=methane_mol dft_energy=-1100.4124071327853 pbc="F F F"
C       -0.00276835      -0.01011723      -0.00633138       0.28187037       0.73677843      -0.37398522
H       -0.62443275       0.90425943      -0.08700300      -0.41207850      -0.38651678       0.10031003
H       -0.45245333      -0.88345918      -0.55213298       0.60544969       0.69673923      -0.04803331
H        0.10722675      -0.28297519       1.03928391      -0.11726456      -0.11796718       0.65921662
H        0.99957380       0.38406677      -0.32364417      -0.35865775      -0.92534778      -0.33688437
5
Lattice="50.0 0.0 0.0 0.0 50.0 0.0 0.0 0.0 50.0" Properties=species:S:1:pos:R:3:dft_forces:R:3 smiles=C config_type=methane_mol dft_energy=-1100.4525455000437 pbc="F F F"
C        0.00716332       0.00023710       0.00228761      -1.03667341       0.59863282       0.16596983
H       -0.70651147       0.82606994      -0.09065870       0.01999154       0.44427894      -0.00271906
H       -0.40206073      -0.79476144      -0.57785467      -0.43541535      -1.22645357      -0.66932629
H        0.05854600      -0.28872414       1.03858143       0.21190762      -0.28487969       0.86658808
H        0.96159454       0.25592262      -0.39627010       1.24033749       0.47096537      -0.36148762
5
Lattice="50.0 0.0 0.0 0.0 50.0 0.0 0.0 0.0 50.0" Properties=species:S:1:pos:R:3:dft_forces:R:3 smiles=C config_type=methane_mol dft_energy=-1100.3441189616847 pbc="F F F"
C       -0.00850628       0.01257403       0.00194050       1.82281323      -1.47838103      -0.29308175
H       -0.74835415       0.81977001      -0.06567708       0.37219605       0.46888627      -0.19912528
H       -0.36031030      -0.84683715      -0.63991696      -0.06809756       0.37508725       0.76621561
H        0.12989027      -0.29161857       1.08088383      -0.37788485       0.01264954      -0.76863827
H        1.07706044       0.17018521      -0.39735621      -1.75015001       0.62255666       0.49528850
5
Lattice="50.0 0.0 0.0 0.0 50.0 0.0 0.0 0.0 50.0" Properties=species:S:1:pos:R:3:dft_forces:R:3 smiles=C config_type=methane_mol dft_energy=-1100.4633672566156 pbc="F F F"
C       -0.00143247      -0.00546441       0.00475944       0.22212282      -0.05547450       0.05791209
H       -0.63903144       0.88094925      -0.07069247      -0.49712299       0.07192098      -0.20172575
H       -0.35739403      -0.84272480      -0.63246160      -0.30571085       0.15154967       0.41397182
H        0.05062189      -0.26692497       1.09701489       0.29740002      -0.09290411      -0.77667616
H        0.95979934       0.29514879      -0.44951854       0.28379162      -0.07448623       0.50619404
5
Lattice="50.0 0.0 0.0 0.0 50.0 0.0 0.0 0.0 50.0" Properties=species:S:1:pos:R:3:dft_forces:R:3 smiles=C config_type=methane_mol dft_energy=-1100.3527033293344 pbc="F F F"
C        0.01232428      -0.00499421      -0.01266129      -0.88769261       1.02732370       0.28312356
H       -0.72507323       0.81391012      -0.06491707       0.28306623       0.43776843      -0.02536234
H       -0.51164668      -0.81034103      -0.50992347       0.51970692      -0.80525393      -0.85789109
H        0.06957188      -0.27214564       1.01997634       0.05821356      -0.38908577       1.36370112
H        1.01721708       0.32942043      -0.29320394       0.02559271      -0.26819804      -0.76251616
5
Lattice="50.0 0.0 0.0 0.0 50.0 0.0 0.0 0.0 50.0" Properties=species:S:1:pos:R:3:dft_forces:R:3 smiles=C config_type=methane_mol dft_energy=-1100.3919568469464 pbc="F F F"
C        0.02014196       0.00882905       0.00095820      -3.30733972      -0.91116513      -0.26200329
H       -0.77121019       0.81119375      -0.10507994       1.02743652      -0.10317504       0.20711299
H       -0.48503611      -0.84022495      -0.56226491       0.92442693       0.47944221       0.16926309
H        0.03035120      -0.33515768       1.04071772       0.31792679       0.17425398       0.35562481
H        0.98280916       0.26031391      -0.38373304       1.03588997       0.36370019      -0.46921570
5
Lattice="50.0 0.0 0.0 0.0 50.0 0.0 0.0 0.0 50.0" Properties=species:S:1:pos:R:3:dft_forces:R:3 smiles=C config_type=methane_mol dft_energy=-1100.335438236014 pbc="F F F"
C        0.01430706       0.00123697       0.00888969      -1.43450390      -2.03525705      -0.59511059
H       -0.70619762       0.78852994      -0.08296800      -0.50645356       1.26767248      -0.19867003
H       -0.45052461      -0.82248953      -0.68045965       0.81578402       0.76297200       1.45422770
H        0.02297463      -0.24679764       1.10531563       0.41497481      -0.29656389      -0.82421024
H        0.96018983       0.26735330      -0.44676154       0.71041767       0.30304510       0.16406262
5
Lattice="50.0 0.0 0.0 0.0 50.0 0.0 0.0 0.0 50.0" Properties=species:S:1:pos:R:3:dft_forces:R:3 smiles=C config_type=methane_mol dft_energy=-1100.4677835776542 pbc="F F F"
C       -0.00781971      -0.00545031      -0.00245849       1.05491155       1.11230826       1.51857309
H       -0.66903882       0.87400054      -0.07095103      -0.07220980      -0.03134918      -0.13362684
H       -0.35272260      -0.80975035      -0.61039936      -0.71009600      -1.13837658      -0.46088817
H        0.11744566      -0.26067293       1.09474929      -0.26677450      -0.11800088      -0.94021373
H        0.99442242       0.26270162      -0.38304784      -0.00624806       0.17605416       0.01592799
5
Lattice="50.0 0.0 0.0 0.0 50.0 0.0 0.0 0.0 50.0" Properties=species:S:1:pos:R:3:dft_forces:R:3 smiles=C config_type=methane_mol dft_energy=-1100.3446985624382 pbc="F F F"
C        0.00195151      -0.00276574       0.01080308       0.54754897      -0.74895125      -1.52634713
H       -0.64685667       0.85074054      -0.18315849      -0.57396407       0.42935771       0.67729788
H       -0.48513365      -0.85458977      -0.60717231       1.14455112       0.94929095       0.68860199
H        0.09936185      -0.33799877       1.06679380      -0.16376867       0.44409673      -0.26463977
H        1.00629920       0.37613983      -0.40413614      -0.95276309      -1.06771592       0.42575800
5
Lattice="50.0 0.0 0.0 0.0 50.0 0.0 0.0 0.0 50.0" Properties=species:S:1:pos:R:3:dft_forces:R:3 smiles=C config_type=methane_mol dft_energy=-1100.4081968722533 pbc="F F F"
C       -0.00569491      -0.00300417      -0.00376777      -0.68365979      -0.91904699       1.22994715
H       -0.62883756       0.86486760      -0.05249517      -0.97251295       0.81373159      -0.32198976
H       -0.35388427      -0.84329445      -0.61228076      -0.41681235      -0.19353639       0.06944971
H        0.10911431      -0.24914227       1.06949527      -0.12732035      -0.34377744      -0.15570213
H        0.93839667       0.26470153      -0.35876563       2.20035945       0.64285062      -0.82204786
5
Lattice="50.0 0.0 0.0 0.0 50.0 0.0 0.0 0.0 50.0" Properties=species:S:1:pos:R:3:dft_forces:R:3 smiles=C config_type=methane_mol dft_energy=-1100.4517291021082 pbc="F F F"
C       -0.00484416       0.00485115      -0.00107877       0.21317585      -0.01060718      -0.33508221
H       -0.69429505       0.85480616      -0.12946836       0.07883029       0.09860335       0.39240924
H       -0.41771792      -0.84508219      -0.55116120       0.12296628      -0.25761397      -0.42753306
H        0.15494944      -0.33483306       1.01299554      -0.47474271       0.08639912       1.00351621
H        1.01171406       0.26863473      -0.31845328       0.05898407       0.08666690      -0.63359006
5
Lattice="50.0 0.0 0.0 0.0 50.0 0.0 0.0 0.0 50.0" Properties=species:S:1:pos:R:3:dft_forces:R:3 smiles=C config_type=methane_mol dft_energy=-1100.4225093806092 pbc="F F F"
C        0.00358866       0.00909855       0.00946487      -0.91234356      -0.24887758      -1.55919869
H       -0.72800750       0.89332280      -0.11921779       0.99516082      -1.14756035       0.31714855
H       -0.37972181      -0.88277074      -0.58906173       0.10972466       0.91091773       0.39160834
H        0.06167134      -0.36311474       1.03989852       0.19612096       0.38252363       0.30185172
H        1.00022221       0.24547526      -0.44334567      -0.38893984       0.10590590       0.55031537
5
Lattice="50.0 0.0 0.0 0.0 50.0 0.0 0.0 0.0 50.0" Properties=species:S:1:pos:R:3:dft_forces:R:3 smiles=C config_type=methane_mol dft_energy=-1100.3645883658626 pbc="F F F"
C       -0.01129171       0.00594226      -0.00746654       2.87952749       0.44027989       1.40396336
H       -0.69485156       0.82087535      -0.08113180      -0.57544540       1.18797778      -0.04244807
H       -0.37700163      -0.81261585      -0.53831656      -0.77932586      -1.88454477      -1.34477600
H        0.15096452      -0.31149066       1.03559882      -0.48871498       0.06994391       0.25030263
H        1.05236657       0.23375448      -0.32612160      -1.03690434       0.18848433      -0.26786792
4
Lattice="50.0 0.0 0.0 0.0 50.0 0.0 0.0 0.0 50.0" Properties=species:S:1:pos:R:3:dft_forces:R:3 smiles=C config_type=methane_rad1 dft_energy=-1082.1955367994015 pbc="F F F"
C        0.18027855      -0.23966115       0.02917426       0.17863352       0.60119303       0.36737270
H       -0.51714624      -0.73339904      -0.64428610      -0.24949030      -0.29042446      -0.01174055
H       -0.03370012      -0.18107453       1.12532704       0.21448360      -0.06076903      -0.77144912
H        0.89801566       0.45488433      -0.45254588      -0.14337248      -0.25077389       0.41626592
4
Lattice="50.0 0.0 0.0 0.0 50.0 0.0 0.0 0.0 50.0" Properties=species:S:1:pos:R:3:dft_forces:R:3 smiles=C config_type=methane_rad1 dft_energy=-1082.14777172204 pbc="F F F"
C        0.19276726      -0.25043948       0.03555711      -0.78160250       0.09433957      -1.74589458
H       -0.57404058      -0.69359051      -0.66813812       0.69331393       0.14048207       0.81120408
H       -0.07085477      -0.13242580       1.07660435      -0.01134736      -0.03056100       0.58756089
H        0.84324312       0.49483983      -0.45603411       0.10128640      -0.20575907       0.34932578
4
Lattice="50.0 0.0 0.0 0.0 50.0 0.0 0.0 0.0 50.0" Properties=species:S:1:pos:R:3:dft_forces:R:3 smiles=C config_type=methane_rad1 dft_energy=-1082.216248032745 pbc="F F F"
C        0.17168112      -0.22790547       0.02320952      -0.54778672      -0.35824910       0.08064895
H       -0.51472652      -0.80953646      -0.62513374       0.36145651       0.28010608       0.25166595
H        0.02539930      -0.20865157       1.10716846      -0.10822921      -0.11902899       0.04703825
H        0.93895021       0.41853896      -0.38245539       0.29358999       0.19787430      -0.37979406
4
Lattice="50.0 0.0 0.0 0.0 50.0 0.0 0.0 0.0 50.0" Properties=species:S:1:pos:R:3:dft_forces:R:3 smiles=C config_type=methane_rad1 dft_energy=-1082.1434775159871 pbc="F F F"
C        0.17575390      -0.24127991       0.01937330       0.89647057       1.33801852       1.93345632