
                                 *****************
                                 * O   R   C   A *
                                 *****************

           --- An Ab Initio, DFT and Semiempirical electronic structure package ---

                  #######################################################
                  #                        -***-                        #
                  #          Department of theory and spectroscopy      #
                  #               Directorship: Frank Neese             #
                  #        Max Planck Institute fuer Kohlenforschung    #
                  #                Kaiser Wilhelm Platz 1               #
                  #                 D-45470 Muelheim/Ruhr               #
                  #                      Germany                        #
                  #                                                     #
                  #                  All rights reserved                #
                  #                        -***-                        #
                  #######################################################


                         Program Version 4.2.1 -  RELEASE  -


 With contributions from (in alphabetic order):
   Daniel Aravena         : Magnetic Suceptibility
   Michael Atanasov       : Ab Initio Ligand Field Theory (pilot matlab implementation)
   Alexander A. Auer      : GIAO ZORA, VPT2
   Ute Becker             : Parallelization
   Giovanni Bistoni       : ED, misc. LED, open-shell LED, HFLD
   Martin Brehm           : Molecular dynamics
   Dmytro Bykov           : SCF Hessian
   Vijay G. Chilkuri      : MRCI spin determinant printing, contributions to CSF-ICE
   Dipayan Datta          : RHF DLPNO-CCSD density
   Achintya Kumar Dutta   : EOM-CC, STEOM-CC
   Dmitry Ganyushin       : Spin-Orbit,Spin-Spin,Magnetic field MRCI
   Miquel Garcia          : C-PCM Hessian, Gaussian charge scheme
   Yang Guo               : DLPNO-NEVPT2, CIM, IAO-localization
   Andreas Hansen         : Spin unrestricted coupled pair/coupled cluster methods
   Benjamin Helmich-Paris : CASSCF linear response (MC-RPA)
   Lee Huntington         : MR-EOM, pCC
   Robert Izsak           : Overlap fitted RIJCOSX, COSX-SCS-MP3, EOM
   Christian Kollmar      : KDIIS, OOCD, Brueckner-CCSD(T), CCSD density
   Simone Kossmann        : Meta GGA functionals, TD-DFT gradient, OOMP2, MP2 Hessian
   Martin Krupicka        : AUTO-CI
   Lucas Lang             : DCDCAS
   Dagmar Lenk            : GEPOL surface, SMD
   Dimitrios Liakos       : Extrapolation schemes; Compound Job, initial MDCI parallelization
   Dimitrios Manganas     : Further ROCIS development; embedding schemes
   Dimitrios Pantazis     : SARC Basis sets
   Taras Petrenko         : DFT Hessian,TD-DFT gradient, ASA, ECA, R-Raman, ABS, FL, XAS/XES, NRVS
   Peter Pinski           : DLPNO-MP2, DLPNO-MP2 Gradient
   Christoph Reimann      : Effective Core Potentials
   Marius Retegan         : Local ZFS, SOC
   Christoph Riplinger    : Optimizer, TS searches, QM/MM, DLPNO-CCSD(T), (RO)-DLPNO pert. Triples
   Tobias Risthaus        : Range-separated hybrids, TD-DFT gradient, RPA, STAB
   Michael Roemelt        : Original ROCIS implementation
   Masaaki Saitow         : Open-shell DLPNO-CCSD energy and density
   Barbara Sandhoefer     : DKH picture change effects
   Avijit Sen             : IP-ROCIS
   Kantharuban Sivalingam : CASSCF convergence, NEVPT2, FIC-MRCI
   Bernardo de Souza      : ESD, SOC TD-DFT
   Georgi Stoychev        : AutoAux, RI-MP2 NMR
   Willem Van den Heuvel  : Paramagnetic NMR
   Boris Wezisla          : Elementary symmetry handling
   Frank Wennmohs         : Technical directorship


 We gratefully acknowledge several colleagues who have allowed us to
 interface, adapt or use parts of their codes:
   Stefan Grimme, W. Hujo, H. Kruse,             : VdW corrections, initial TS optimization,
                  C. Bannwarth                     DFT functionals, gCP, sTDA/sTD-DF
   Ed Valeev, F. Pavosevic, A. Kumar             : LibInt (2-el integral package), F12 methods
   Garnet Chan, S. Sharma, J. Yang, R. Olivares  : DMRG
   Ulf Ekstrom                                   : XCFun DFT Library
   Mihaly Kallay                                 : mrcc  (arbitrary order and MRCC methods)
   Andreas Klamt, Michael Diedenhofen            : otool_cosmo (COSMO solvation model)
   Jiri Pittner, Ondrej Demel                    : Mk-CCSD
   Frank Weinhold                                : gennbo (NPA and NBO analysis)
   Christopher J. Cramer and Donald G. Truhlar   : smd solvation model
   Lars Goerigk                                  : TD-DFT with DH, B97 family of functionals
   V. Asgeirsson, H. Jonsson                     : NEB implementation
   FAccTs GmbH                                   : IRC, NEB, NEB-TS, Multilevel, MM, QM/MM, CI optimization
   S Lehtola, MJT Oliveira, MAL Marques          : LibXC Library


 Your calculation uses the libint2 library for the computation of 2-el integrals
 For citations please refer to: http://libint.valeyev.net

 Your ORCA version has been built with support for libXC version: 4.2.3
 For citations please refer to: https://tddft.org/programs/libxc/

 This ORCA versions uses:
   CBLAS   interface :  Fast vector & matrix operations
   LAPACKE interface :  Fast linear algebra routines
   SCALAPACK package :  Parallel linear algebra routines


Your calculation utilizes the atom-pairwise dispersion correction
with the Becke-Johnson damping scheme (D3BJ)
Cite in your paper:
S.Grimme, S.Ehrlich, L.Goerigk, J Comput Chem, (2011), 32, 1456–1465 
S.Grimme, J.Antony, S.Ehrlich and H.Krieg, J.Chem.Phys., 132, (2010), 154104 
   

----- Orbital basis set information -----
Your calculation utilizes the basis: def2-SV(P)
   F. Weigend and R. Ahlrichs, Phys. Chem. Chem. Phys. 7, 3297 (2005).

----- AuxJ basis set information -----
Your calculation utilizes the auxiliary basis: def2/J
   F. Weigend, Phys. Chem. Chem. Phys. 8, 1057 (2006).

================================================================================
                                        WARNINGS
                       Please study these warnings very carefully!
================================================================================


WARNING: Geometry Optimization
  ===> : Switching off AutoStart
         For restart on a previous wavefunction, please use MOREAD

INFO   : the flag for use of LIBINT has been found!

================================================================================
                                       INPUT FILE
================================================================================
NAME = orca2.inp
|  1> ! UKS B3LYP def2-SV(P) def2/J D3BJ Opt
|  2> %scf Convergence VeryTight
|  3> SmearTemp 2000
|  4> maxiter 500
|  5> end
|  6> *xyz 0 1
|  7> C -1.936927 1.005417 0.219228
|  8> C -1.295805 0.05986 -0.757569
|  9> C -0.727391 -1.175164 -0.123974
| 10> C 0.462594 -0.919945 0.753015
| 11> C 1.672798 -0.519441 -0.045098
| 12> C 1.907166 0.973554 -0.018327
| 13> H -2.455116 1.780163 -0.382024
| 14> H -2.677288 0.455369 0.822928
| 15> H -1.227365 1.503427 0.895304
| 16> H -2.109497 -0.287299 -1.444273
| 17> H -0.547537 0.552544 -1.396232
| 18> H -1.509653 -1.733032 0.414869
| 19> H -0.3679 -1.820634 -0.965318
| 20> H 0.690802 -1.875447 1.277704
| 21> H 0.200547 -0.19329 1.539384
| 22> H 1.52817 -0.863298 -1.094525
| 23> H 2.572024 -1.040392 0.357481
| 24> H 2.213712 1.340071 -1.024507
| 25> H 0.954442 1.492767 0.213315
| 26> H 2.652224 1.26477 0.758618
| 27> *
| 28> 
| 29>                          ****END OF INPUT****
================================================================================

                       *****************************
                       * Geometry Optimization Run *
                       *****************************

Geometry optimization settings:
Update method            Update   .... BFGS
Choice of coordinates    CoordSys .... Z-matrix Internals
Initial Hessian          InHess   .... Almoef's Model

Convergence Tolerances:
Energy Change            TolE     ....  5.0000e-06 Eh
Max. Gradient            TolMAXG  ....  3.0000e-04 Eh/bohr
RMS Gradient             TolRMSG  ....  1.0000e-04 Eh/bohr
Max. Displacement        TolMAXD  ....  4.0000e-03 bohr
RMS Displacement         TolRMSD  ....  2.0000e-03 bohr
Strict Convergence                ....  False
------------------------------------------------------------------------------
                        ORCA OPTIMIZATION COORDINATE SETUP
------------------------------------------------------------------------------

The optimization will be done in new redundant internal coordinates
Making redundant internal coordinates   ...  (new redundants) done
Evaluating the initial hessian          ...  (Almloef) done
Evaluating the coordinates              ...  done
Calculating the B-matrix                .... done
Calculating the G-matrix                .... done
Diagonalizing the G-matrix              .... done
Small eigenvalue found = 1.580e-02
Small eigenvalue found = 2.932e-02
The first mode is                       ....   46
The number of degrees of freedom        ....   54

    -----------------------------------------------------------------
                    Redundant Internal Coordinates


    -----------------------------------------------------------------
         Definition                    Initial Value    Approx d2E/dq
    -----------------------------------------------------------------
      1. B(C   1,C   0)                  1.5031         0.412408   
      2. B(C   2,C   1)                  1.4999         0.417192   
      3. B(C   3,C   2)                  1.5001         0.416942   
      4. B(C   4,C   3)                  1.5040         0.411033   
      5. B(C   5,C   4)                  1.5115         0.399824   
      6. B(H   6,C   0)                  1.1092         0.335614   
      7. B(H   7,C   0)                  1.1023         0.344147   
      8. B(H   8,C   0)                  1.0994         0.347941   
      9. B(H   9,C   1)                  1.1199         0.322641   
     10. B(H  10,C   1)                  1.1002         0.346803   
     11. B(H  11,C   2)                  1.1016         0.345089   
     12. B(H  12,C   2)                  1.1197         0.322880   
     13. B(H  13,C   3)                  1.1137         0.330056   
     14. B(H  14,C   3)                  1.1023         0.344187   
     15. B(H  15,C   4)                  1.1138         0.330006   
     16. B(H  16,C   4)                  1.1145         0.329129   
     17. B(H  17,C   5)                  1.1139         0.329870   
     18. B(H  18,C   5)                  1.1095         0.335243   
     19. B(H  19,C   5)                  1.1152         0.328319   
     20. A(H   7,C   0,H   8)          108.8288         0.287233   
     21. A(C   1,C   0,H   7)          109.1764         0.327190   
     22. A(C   1,C   0,H   6)          106.6429         0.325840   
     23. A(H   6,C   0,H   7)          109.3678         0.285621   
     24. A(H   6,C   0,H   8)          108.5713         0.286110   
     25. A(C   1,C   0,H   8)          114.1623         0.327782   
     26. A(C   2,C   1,H  10)          110.8658         0.328228   
     27. A(C   0,C   1,H  10)          112.6820         0.327605   
     28. A(C   2,C   1,H   9)          106.2075         0.324350   
     29. A(C   0,C   1,H   9)          106.4741         0.323737   
     30. A(H   9,C   1,H  10)          106.0821         0.284214   
     31. A(C   0,C   1,C   2)          113.8975         0.376662   
     32. A(H  11,C   2,H  12)          107.6743         0.284028   
     33. A(C   1,C   2,C   3)          114.0467         0.377375   
     34. A(C   3,C   2,H  11)          111.3159         0.327928   
     35. A(C   1,C   2,H  11)          110.7625         0.327960   
     36. A(C   1,C   2,H  12)          106.1957         0.324389   
     37. A(C   3,C   2,H  12)          106.4198         0.324358   
     38. A(C   2,C   3,C   4)          111.9244         0.376406   
     39. A(H  13,C   3,H  14)          106.1523         0.284884   
     40. A(C   4,C   3,H  14)          113.2232         0.327016   
     41. A(C   2,C   3,H  14)          109.9155         0.327786   
     42. A(C   4,C   3,H  13)          108.2756         0.324769   
     43. A(C   2,C   3,H  13)          106.9780         0.325531   
     44. A(H  15,C   4,H  16)          107.5070         0.282904   
     45. A(C   5,C   4,H  16)          109.2813         0.323148   
     46. A(C   3,C   4,H  16)          109.4559         0.324619   
     47. A(C   5,C   4,H  15)          109.9852         0.323290   
     48. A(C   3,C   4,H  15)          108.2587         0.324761   
     49. A(C   3,C   4,C   5)          112.2346         0.373692   
     50. A(C   4,C   5,H  17)          110.5907         0.323268   
     51. A(H  18,C   5,H  19)          107.8216         0.283488   
     52. A(H  17,C   5,H  19)          111.0730         0.282778   
     53. A(C   4,C   5,H  19)          111.9552         0.323018   
     54. A(H  17,C   5,H  18)          105.7201         0.283696   
     55. A(C   4,C   5,H  18)          109.4387         0.324126   
     56. D(H   9,C   1,C   0,H   8)   -174.1668         0.013469   
     57. D(H  10,C   1,C   0,H   7)    179.6840         0.013469   
     58. D(H   9,C   1,C   0,H   7)     63.7916         0.013469   
     59. D(H  10,C   1,C   0,H   8)    -58.2744         0.013469   
     60. D(H   9,C   1,C   0,H   6)    -54.2703         0.013469   
     61. D(C   2,C   1,C   0,H   8)     69.1287         0.013469   
     62. D(C   2,C   1,C   0,H   7)    -52.9129         0.013469   
     63. D(C   2,C   1,C   0,H   6)   -170.9748         0.013469   
     64. D(H  10,C   1,C   0,H   6)     61.6221         0.013469   
     65. D(H  11,C   2,C   1,H   9)    -58.2902         0.013775   
     66. D(C   3,C   2,C   1,H  10)     60.4023         0.013775   
     67. D(C   3,C   2,C   1,C   0)    -67.9339         0.013775   
     68. D(H  11,C   2,C   1,C   0)     58.5691         0.013775   
     69. D(H  11,C   2,C   1,H  10)   -173.0948         0.013775   
     70. D(H  12,C   2,C   1,H  10)    -56.4651         0.013775   
     71. D(H  12,C   2,C   1,H   9)     58.3394         0.013775   
     72. D(H  12,C   2,C   1,C   0)    175.1987         0.013775   
     73. D(C   3,C   2,C   1,H   9)    175.2068         0.013775   
     74. D(H  14,C   3,C   2,H  11)    -69.4293         0.013759   
     75. D(H  14,C   3,C   2,C   1)     56.7845         0.013759   
     76. D(H  13,C   3,C   2,H  12)    -71.6443         0.013759   
     77. D(H  13,C   3,C   2,H  11)     45.4043         0.013759   
     78. D(H  13,C   3,C   2,C   1)    171.6181         0.013759   
     79. D(C   4,C   3,C   2,H  11)    163.8500         0.013759   
     80. D(C   4,C   3,C   2,H  12)     46.8014         0.013759   
     81. D(H  14,C   3,C   2,H  12)    173.5221         0.013759   
     82. D(C   4,C   3,C   2,C   1)    -69.9362         0.013759   
     83. D(H  15,C   4,C   3,C   2)    -20.8328         0.013381   
     84. D(C   5,C   4,C   3,H  14)    -24.1619         0.013381   
     85. D(C   5,C   4,C   3,H  13)   -141.5813         0.013381   
     86. D(C   5,C   4,C   3,C   2)    100.7465         0.013381   
     87. D(H  16,C   4,C   3,H  14)     97.3547         0.013381   
     88. D(H  16,C   4,C   3,H  13)    -20.0648         0.013381   
     89. D(H  16,C   4,C   3,C   2)   -137.7370         0.013381   
     90. D(H  15,C   4,C   3,H  14)   -145.7412         0.013381   
     91. D(H  15,C   4,C   3,H  13)     96.8394         0.013381   
     92. D(H  19,C   5,C   4,H  16)    -25.1991         0.012684   
     93. D(H  19,C   5,C   4,H  15)   -142.9963         0.012684   
     94. D(H  19,C   5,C   4,C   3)     96.4174         0.012684   
     95. D(H  18,C   5,C   4,H  16)   -144.6843         0.012684   
     96. D(H  18,C   5,C   4,H  15)     97.5185         0.012684   
     97. D(H  18,C   5,C   4,C   3)    -23.0678         0.012684   
     98. D(H  17,C   5,C   4,H  16)     99.2431         0.012684   
     99. D(H  17,C   5,C   4,H  15)    -18.5541         0.012684   
    100. D(H  17,C   5,C   4,C   3)   -139.1404         0.012684   
    -----------------------------------------------------------------

Number of atoms                         .... 20
Number of degrees of freedom            .... 100

Time needed for optimization step       :     1.43 sec

         *************************************************************
         *                GEOMETRY OPTIMIZATION CYCLE   1            *
         *************************************************************
---------------------------------
CARTESIAN COORDINATES (ANGSTROEM)
---------------------------------
  C     -1.936927    1.005417    0.219228
  C     -1.295805    0.059860   -0.757569
  C     -0.727391   -1.175164   -0.123974
  C      0.462594   -0.919945    0.753015
  C      1.672798   -0.519441   -0.045098
  C      1.907166    0.973554   -0.018327
  H     -2.455116    1.780163   -0.382024
  H     -2.677288    0.455369    0.822928
  H     -1.227365    1.503427    0.895304
  H     -2.109497   -0.287299   -1.444273
  H     -0.547537    0.552544   -1.396232
  H     -1.509653   -1.733032    0.414869
  H     -0.367900   -1.820634   -0.965318
  H      0.690802   -1.875447    1.277704
  H      0.200547   -0.193290    1.539384
  H      1.528170   -0.863298   -1.094525
  H      2.572024   -1.040392    0.357481
  H      2.213712    1.340071   -1.024507
  H      0.954442    1.492767    0.213315
  H      2.652224    1.264770    0.758618

----------------------------
CARTESIAN COORDINATES (A.U.)
----------------------------
  NO LB      ZA    FRAG     MASS         X           Y           Z
   0 C     6.0000    0    12.011   -3.660262    1.899963    0.414281
   1 C     6.0000    0    12.011   -2.448717    0.113119   -1.431598
   2 C     6.0000    0    12.011   -1.374570   -2.220738   -0.234277
   3 C     6.0000    0    12.011    0.874176   -1.738444    1.422992
   4 C     6.0000    0    12.011    3.161130   -0.981601   -0.085223
   5 C     6.0000    0    12.011    3.604021    1.839750   -0.034633
   6 H     1.0000    0     1.008   -4.639497    3.364021   -0.721921
   7 H     1.0000    0     1.008   -5.059341    0.860523    1.555109
   8 H     1.0000    0     1.008   -2.319384    2.841065    1.691879
   9 H     1.0000    0     1.008   -3.986372   -0.542916   -2.729280
  10 H     1.0000    0     1.008   -1.034695    1.044157   -2.638496
  11 H     1.0000    0     1.008   -2.852831   -3.274956    0.783989
  12 H     1.0000    0     1.008   -0.695230   -3.440500   -1.824187
  13 H     1.0000    0     1.008    1.305427   -3.544081    2.414511
  14 H     1.0000    0     1.008    0.378979   -0.365265    2.909014
  15 H     1.0000    0     1.008    2.887823   -1.631397   -2.068352
  16 H     1.0000    0     1.008    4.860421   -1.966056    0.675541
  17 H     1.0000    0     1.008    4.183309    2.532367   -1.936038
  18 H     1.0000    0     1.008    1.803634    2.820921    0.403107
  19 H     1.0000    0     1.008    5.011977    2.390069    1.433580

--------------------------------
INTERNAL COORDINATES (ANGSTROEM)
--------------------------------
 C      0   0   0     0.000000000000     0.00000000     0.00000000
 C      1   0   0     1.503079451773     0.00000000     0.00000000
 C      2   1   0     1.499940458817   113.89752276     0.00000000
 C      3   2   1     1.500103577860   114.04667148   292.06614586
 C      4   3   2     1.503988542643   111.92442725   290.06383245
 C      5   4   3     1.511515503027   112.23460472   100.74649378
 H      1   2   3     1.109168684980   106.64293236   189.02523729
 H      1   2   3     1.102334297128   109.17636529   307.08712271
 H      1   2   3     1.099350239787   114.16232574    69.12866526
 H      2   1   3     1.119900185624   106.47410307   116.70449145
 H      2   1   3     1.100242223898   112.68203808   232.59688737
 H      3   2   1     1.101590813650   110.76251675    58.56910769
 H      3   2   1     1.119698631917   106.19570026   175.19874748
 H      4   3   2     1.113715183514   106.97799570   171.61814325
 H      4   3   2     1.102303190322   109.91548031    56.78454828
 H      5   4   3     1.113755773571   108.25874112   339.16718984
 H      5   4   3     1.114480683869   109.45593393   222.26301338
 H      6   5   4     1.113868642976   110.59073393   220.85955294
 H      6   5   4     1.109469772328   109.43868514   336.93219256
 H      6   5   4     1.115150983071   111.95515148    96.41736311

---------------------------
INTERNAL COORDINATES (A.U.)
---------------------------
 C      0   0   0     0.000000000000     0.00000000     0.00000000
 C      1   0   0     2.840408521375     0.00000000     0.00000000
 C      2   1   0     2.834476684353   113.89752276     0.00000000
 C      3   2   1     2.834784934670   114.04667148   292.06614586
 C      4   3   2     2.842126454150   111.92442725   290.06383245
 C      5   4   3     2.856350347897   112.23460472   100.74649378
 H      1   2   3     2.096025050934   106.64293236   189.02523729
 H      1   2   3     2.083109929601   109.17636529   307.08712271
 H      1   2   3     2.077470878458   114.16232574    69.12866526
 H      2   1   3     2.116304648157   106.47410307   116.70449145
 H      2   1   3     2.079156484145   112.68203808   232.59688737
 H      3   2   1     2.081704949441   110.76251675    58.56910769
 H      3   2   1     2.115923766850   106.19570026   175.19874748
 H      4   3   2     2.104616688031   106.97799570   171.61814325
 H      4   3   2     2.083051146257   109.91548031    56.78454828
 H      5   4   3     2.104693392122   108.25874112   339.16718984
 H      5   4   3     2.106063274058   109.45593393   222.26301338
 H      6   5   4     2.104906684387   110.59073393   220.85955294
 H      6   5   4     2.096594023563   109.43868514   336.93219256
 H      6   5   4     2.107329955978   111.95515148    96.41736311

---------------------
BASIS SET INFORMATION
---------------------
There are 2 groups of distinct atoms

 Group   1 Type C   : 7s4p1d contracted to 3s2p1d pattern {511/31/1}
 Group   2 Type H   : 4s contracted to 2s pattern {31}

Atom   0C    basis set group =>   1
Atom   1C    basis set group =>   1
Atom   2C    basis set group =>   1
Atom   3C    basis set group =>   1
Atom   4C    basis set group =>   1
Atom   5C    basis set group =>   1
Atom   6H    basis set group =>   2
Atom   7H    basis set group =>   2
Atom   8H    basis set group =>   2
Atom   9H    basis set group =>   2
Atom  10H    basis set group =>   2
Atom  11H    basis set group =>   2
Atom  12H    basis set group =>   2
Atom  13H    basis set group =>   2
Atom  14H    basis set group =>   2
Atom  15H    basis set group =>   2
Atom  16H    basis set group =>   2
Atom  17H    basis set group =>   2
Atom  18H    basis set group =>   2
Atom  19H    basis set group =>   2
---------------------------------
AUXILIARY/J BASIS SET INFORMATION
---------------------------------
There are 2 groups of distinct atoms

 Group   1 Type C   : 12s5p4d2f1g contracted to 6s4p3d1f1g pattern {711111/2111/211/2/1}
 Group   2 Type H   : 5s2p1d contracted to 3s1p1d pattern {311/2/1}

Atom   0C    basis set group =>   1
Atom   1C    basis set group =>   1
Atom   2C    basis set group =>   1
Atom   3C    basis set group =>   1
Atom   4C    basis set group =>   1
Atom   5C    basis set group =>   1
Atom   6H    basis set group =>   2
Atom   7H    basis set group =>   2
Atom   8H    basis set group =>   2
Atom   9H    basis set group =>   2
Atom  10H    basis set group =>   2
Atom  11H    basis set group =>   2
Atom  12H    basis set group =>   2
Atom  13H    basis set group =>   2
Atom  14H    basis set group =>   2
Atom  15H    basis set group =>   2
Atom  16H    basis set group =>   2
Atom  17H    basis set group =>   2
Atom  18H    basis set group =>   2
Atom  19H    basis set group =>   2
------------------------------------------------------------------------------
                           ORCA GTO INTEGRAL CALCULATION
------------------------------------------------------------------------------

                         BASIS SET STATISTICS AND STARTUP INFO

 # of primitive gaussian shells          ...  128
 # of primitive gaussian functions       ...  200
 # of contracted shells                  ...   64
 # of contracted basis functions         ...  112
 Highest angular momentum                ...    2
 Maximum contraction depth               ...    5
 Integral package used                   ... LIBINT
 Integral threshhold            Thresh   ...  1.000e-12
 Primitive cut-off              TCut     ...  1.000e-14


------------------------------ INTEGRAL EVALUATION ----------------------------


 * One electron integrals 
 Pre-screening matrix                    ... done
 Shell pair data                         ... done (   0.001 sec)

-------------------------------------------------------------------------------
                                 ORCA SCF
-------------------------------------------------------------------------------

------------
SCF SETTINGS
------------
Hamiltonian:
 Density Functional     Method          .... DFT(GTOs)
 Exchange Functional    Exchange        .... B88
   X-Alpha parameter    XAlpha          ....  0.666667
   Becke's b parameter  XBeta           ....  0.004200
 Correlation Functional Correlation     .... LYP
 LDA part of GGA corr.  LDAOpt          .... VWN-5
 Gradients option       PostSCFGGA      .... off
 Hybrid DFT is turned on
   Fraction HF Exchange ScalHFX         ....  0.200000
   Scaling of DF-GGA-X  ScalDFX         ....  0.720000
   Scaling of DF-GGA-C  ScalDFC         ....  0.810000
   Scaling of DF-LDA-C  ScalLDAC        ....  1.000000
   Perturbative correction              ....  0.000000
   Density functional embedding theory  .... OFF
   NL short-range parameter             ....  4.800000


General Settings:
 Integral files         IntName         .... orca2
 Hartree-Fock type      HFTyp           .... UHF
 Total Charge           Charge          ....    0
 Multiplicity           Mult            ....    1
 Number of Electrons    NEL             ....   50
 Basis Dimension        Dim             ....  112
 Nuclear Repulsion      ENuc            ....    260.2139031518 Eh

Convergence Acceleration:
 DIIS                   CNVDIIS         .... on
   Start iteration      DIISMaxIt       ....    12
   Startup error        DIISStart       ....  0.200000
   # of expansion vecs  DIISMaxEq       ....     5
   Bias factor          DIISBfac        ....   1.050
   Max. coefficient     DIISMaxC        ....  10.000
 Newton-Raphson         CNVNR           .... off
 SOSCF                  CNVSOSCF        .... off
 Level Shifting         CNVShift        .... on
   Level shift para.    LevelShift      ....    0.2500
   Turn off err/grad.   ShiftErr        ....    0.0010
 Zerner damping         CNVZerner       .... off
 Static damping         CNVDamp         .... on
   Fraction old density DampFac         ....    0.7000
   Max. Damping (<1)    DampMax         ....    0.9800
   Min. Damping (>=0)   DampMin         ....    0.0000
   Turn off err/grad.   DampErr         ....    0.1000
 Fernandez-Rico         CNVRico         .... off

SCF Procedure:
 Maximum # iterations   MaxIter         ....   500
 SCF integral mode      SCFMode         .... Direct
   Integral package                     .... LIBINT
 Reset frequency        DirectResetFreq ....    20
 Integral Threshold     Thresh          ....  1.000e-12 Eh
 Primitive CutOff       TCut            ....  1.000e-14 Eh

Convergence Tolerance:
 Convergence Check Mode ConvCheckMode   .... Total+1el-Energy
 Convergence forced     ConvForced      .... 0
 Energy Change          TolE            ....  1.000e-09 Eh
 1-El. energy change                    ....  1.000e-06 Eh
 DIIS Error             TolErr          ....  1.000e-08


Diagonalization of the overlap matrix:
Smallest eigenvalue                        ... 2.021e-03
Time for diagonalization                   ...    0.001 sec
Threshold for overlap eigenvalues          ... 1.000e-08
Number of eigenvalues below threshold      ... 0
Time for construction of square roots      ...    3.652 sec
Total time needed                          ...    3.654 sec

-------------------
DFT GRID GENERATION
-------------------

General Integration Accuracy     IntAcc      ...  4.340
Radial Grid Type                 RadialGrid  ... Gauss-Chebyshev
Angular Grid (max. acc.)         AngularGrid ... Lebedev-110
Angular grid pruning method      GridPruning ... 3 (G Style)
Weight generation scheme         WeightScheme... Becke
Basis function cutoff            BFCut       ...    1.0000e-12
Integration weight cutoff        WCut        ...    1.0000e-14
Grids for H and He will be reduced by one unit

# of grid points (after initial pruning)     ...  21052 (   0.0 sec)
# of grid points (after weights+screening)   ...  19164 (   0.0 sec)
nearest neighbour list constructed           ...    0.0 sec
Grid point re-assignment to atoms done       ...    0.0 sec
Grid point division into batches done        ...    0.0 sec
Reduced shell lists constructed in    0.1 sec

Total number of grid points                  ...    19164
Total number of batches                      ...      310
Average number of points per batch           ...       61
Average number of grid points per atom       ...      958
Average number of shells per batch           ...    53.47 (83.54%)
Average number of basis functions per batch  ...    93.18 (83.20%)
Average number of large shells per batch     ...    44.58 (83.38%)
Average number of large basis fcns per batch ...    76.40 (81.99%)
Maximum spatial batch extension              ...  20.60, 22.65, 20.19 au
Average spatial batch extension              ...   3.49,  3.63,  3.66 au

Time for grid setup =    2.119 sec

------------------------------
INITIAL GUESS: MODEL POTENTIAL
------------------------------
Loading Hartree-Fock densities                     ... done
Calculating cut-offs                               ... done
Setting up the integral package                    ... done
Initializing the effective Hamiltonian             ... done
Starting the Coulomb interaction                   ... done (   0.1 sec)
Reading the grid                                   ... done
Mapping shells                                     ... done
Starting the XC term evaluation                    ... done (   0.2 sec)
  promolecular density results
     # of electrons  =     49.985439016
     EX              =    -35.018730909
     EC              =     -1.579870859
     EX+EC           =    -36.598601769
Transforming the Hamiltonian                       ... done (   0.0 sec)
Diagonalizing the Hamiltonian                      ... done (   0.0 sec)
Back transforming the eigenvectors                 ... done (   0.0 sec)
Now organizing SCF variables                       ... done
                      ------------------
                      INITIAL GUESS DONE (   2.5 sec)
                      ------------------
--------------
SCF ITERATIONS
--------------
ITER       Energy         Delta-E        Max-DP      RMS-DP      [F,P]     Damp
               ***  Starting incremental Fock matrix formation  ***
  0   -236.4274496540   0.000000000000 0.04226266  0.00184137  0.1754005 0.7000
  1   -236.5465868488  -0.119137194772 0.02601632  0.00130152  0.0901115 0.7000
                               ***Turning on DIIS***
  2   -236.5929990333  -0.046412184518 0.03607574  0.00212880  0.0327348 0.0000
  3   -236.6568909018  -0.063891868439 0.01706869  0.00088428  0.0498395 0.0000
  4   -236.6777064134  -0.020815511642 0.00329429  0.00026028  0.0102081 0.0000
  5   -236.6786486932  -0.000942279841 0.00123001  0.00009007  0.0018506 0.0000
  6   -236.6787017287  -0.000053035423 0.00059631  0.00004606  0.0006078 0.0000
  7   -236.6787059045  -0.000004175820 0.00017159  0.00000528  0.0003037 0.0000
  8   -236.6787062671  -0.000000362597 0.00003054  0.00000137  0.0000551 0.0000
  9   -236.6787062839  -0.000000016827 0.00000750  0.00000036  0.0000093 0.0000
 10   -236.6787062846  -0.000000000645 0.00000409  0.00000014  0.0000066 0.0000
 11   -236.6787062848  -0.000000000204 0.00000100  0.00000005  0.0000019 0.0000
 12   -236.6787062848  -0.000000000002 0.00000025  0.00000001  0.0000004 0.0000
 13   -236.6787062847   0.000000000041 0.00000013  0.00000000  0.0000002 0.0000
                 **** Energy Check signals convergence ****

 Fermi smearing  (ALPHA): E(HOMO(Eh)) = -0.299613 MUE = -0.123099 gap=   9.606 eV
 Fermi smearing   (BETA): E(HOMO(Eh)) = -0.299613 MUE = -0.123099 gap=   9.606 eV

N_FOD(alpha) =  0.000000
 N_FOD(beta) =  0.000000
       N_FOD =  0.000000

               *****************************************************
               *                     SUCCESS                       *
               *           SCF CONVERGED AFTER  14 CYCLES          *
               *****************************************************

Setting up the final grid:

General Integration Accuracy     IntAcc      ...  4.670
Radial Grid Type                 RadialGrid  ... Gauss-Chebyshev
Angular Grid (max. acc.)         AngularGrid ... Lebedev-302
Angular grid pruning method      GridPruning ... 3 (G Style)
Weight generation scheme         WeightScheme... Becke
Basis function cutoff            BFCut       ...    1.0000e-12
Integration weight cutoff        WCut        ...    1.0000e-14
Grids for H and He will be reduced by one unit

# of grid points (after initial pruning)     ...  84788 (   0.0 sec)
# of grid points (after weights+screening)   ...  75880 (   0.2 sec)
nearest neighbour list constructed           ...    0.0 sec
Grid point re-assignment to atoms done       ...    0.0 sec
Grid point division into batches done        ...    0.2 sec
Reduced shell lists constructed in    0.5 sec

Total number of grid points                  ...    75880
Total number of batches                      ...     1196
Average number of points per batch           ...       63
Average number of grid points per atom       ...     3794
Average number of shells per batch           ...    50.04 (78.19%)
Average number of basis functions per batch  ...    86.67 (77.39%)
Average number of large shells per batch     ...    40.93 (81.80%)
Average number of large basis fcns per batch ...    69.78 (80.51%)
Maximum spatial batch extension              ...  19.16, 18.30, 18.28 au
Average spatial batch extension              ...   2.30,  2.32,  2.37 au

Final grid set up in    5.1 sec
Final integration                            ... done (  15.2 sec)
Change in XC energy                          ...    -0.000220360
Integrated number of electrons               ...    50.000100829
Previous integrated no of electrons          ...    49.997485936

----------------
TOTAL SCF ENERGY
----------------

Total Energy       :         -236.67892664 Eh           -6440.36102 eV

Components:
Nuclear Repulsion  :          260.21390315 Eh            7080.78028 eV
Electronic Energy  :         -496.89282980 Eh          -13521.14130 eV
One Electron Energy:         -832.17709474 Eh          -22644.68998 eV
Two Electron Energy:          335.28426494 Eh            9123.54868 eV

Virial components:
Potential Energy   :         -470.96900811 Eh          -12815.71825 eV
Kinetic Energy     :          234.29008147 Eh            6375.35723 eV
Virial Ratio       :            2.01019610


DFT components:
N(Alpha)           :       25.000050414632 electrons
N(Beta)            :       25.000050414632 electrons
N(Total)           :       50.000100829263 electrons
E(X)               :      -28.528965875807 Eh       
E(C)               :       -1.873620342181 Eh       
E(XC)              :      -30.402586217988 Eh       
DFET-embed. en.    :        0.000000000000 Eh       

---------------
SCF CONVERGENCE
---------------

  Last Energy change         ...   -5.1585e-11  Tolerance :   1.0000e-09
  Last MAX-Density change    ...    3.4906e-08  Tolerance :   1.0000e-08
  Last RMS-Density change    ...    9.6333e-10  Tolerance :   1.0000e-09
  Last DIIS Error            ...    5.6883e-08  Tolerance :   1.0000e-08

             **** THE GBW FILE WAS UPDATED (orca2.gbw) ****
             **** DENSITY FILE WAS UPDATED (orca2.scfp) ****
             **** ENERGY FILE WAS UPDATED (orca2.en.tmp) ****
             **** THE GBW FILE WAS UPDATED (orca2.gbw) ****
             **** DENSITY FILE WAS UPDATED (orca2.scfp) ****
----------------
ORBITAL ENERGIES
----------------
                 SPIN UP ORBITALS
  NO   OCC          E(Eh)            E(eV) 
   0   1.0000     -10.167430      -276.6698 
   1   1.0000     -10.167369      -276.6682 
   2   1.0000     -10.165047      -276.6050 
   3   1.0000     -10.164055      -276.5780 
   4   1.0000     -10.163875      -276.5731 
   5   1.0000     -10.162080      -276.5242 
   6   1.0000      -0.808441       -21.9988 
   7   1.0000      -0.756318       -20.5805 
   8   1.0000      -0.698485       -19.0067 
   9   1.0000      -0.633704       -17.2440 
  10   1.0000      -0.582617       -15.8538 
  11   1.0000      -0.540524       -14.7084 
  12   1.0000      -0.477837       -13.0026 
  13   1.0000      -0.456792       -12.4299 
  14   1.0000      -0.427365       -11.6292 
  15   1.0000      -0.423356       -11.5201 
  16   1.0000      -0.399596       -10.8736 
  17   1.0000      -0.386375       -10.5138 
  18   1.0000      -0.380899       -10.3648 
  19   1.0000      -0.345096        -9.3905 
  20   1.0000      -0.338904        -9.2221 
  21   1.0000      -0.334894        -9.1129 
  22   1.0000      -0.314726        -8.5641 
  23   1.0000      -0.305301        -8.3077 
  24   1.0000      -0.299613        -8.1529 
  25   0.0000       0.053414         1.4535 
  26   0.0000       0.072823         1.9816 
  27   0.0000       0.080121         2.1802 
  28   0.0000       0.083083         2.2608 
  29   0.0000       0.108063         2.9405 
  30   0.0000       0.119978         3.2648 
  31   0.0000       0.137040         3.7290 
  32   0.0000       0.139996         3.8095 
  33   0.0000       0.145885         3.9697 
  34   0.0000       0.156712         4.2644 
  35   0.0000       0.158997         4.3265 
  36   0.0000       0.173942         4.7332 
  37   0.0000       0.192430         5.2363 
  38   0.0000       0.206011         5.6058 
  39   0.0000       0.220656         6.0044 
  40   0.0000       0.255984         6.9657 
  41   0.0000       0.259751         7.0682 
  42   0.0000       0.283701         7.7199 
  43   0.0000       0.310644         8.4531 
  44   0.0000       0.408817        11.1245 
  45   0.0000       0.426599        11.6083 
  46   0.0000       0.436565        11.8795 
  47   0.0000       0.451978        12.2990 
  48   0.0000       0.463425        12.6104 
  49   0.0000       0.481938        13.1142 
  50   0.0000       0.514800        14.0084 
  51   0.0000       0.541191        14.7265 
  52   0.0000       0.588057        16.0018 
  53   0.0000       0.605794        16.4845 
  54   0.0000       0.631312        17.1789 
  55   0.0000       0.642696        17.4887 
  56   0.0000       0.657648        17.8955 
  57   0.0000       0.665716        18.1151 
  58   0.0000       0.670410        18.2428 
  59   0.0000       0.677459        18.4346 
  60   0.0000       0.692277        18.8378 
  61   0.0000       0.699711        19.0401 
  62   0.0000       0.704599        19.1731 
  63   0.0000       0.708579        19.2814 
  64   0.0000       0.717602        19.5269 
  65   0.0000       0.719404        19.5760 
  66   0.0000       0.723364        19.6837 
  67   0.0000       0.733012        19.9463 
  68   0.0000       0.740276        20.1439 
  69   0.0000       0.748450        20.3664 
  70   0.0000       0.755097        20.5472 
  71   0.0000       0.770864        20.9763 
  72   0.0000       0.775328        21.0977 
  73   0.0000       0.784242        21.3403 
  74   0.0000       0.803609        21.8673 
  75   0.0000       0.819658        22.3040 
  76   0.0000       0.914837        24.8940 
  77   0.0000       1.000553        27.2264 
  78   0.0000       1.027953        27.9720 
  79   0.0000       1.102026        29.9877 
  80   0.0000       1.149801        31.2877 
  81   0.0000       1.221729        33.2449 
  82   0.0000       1.399416        38.0800 
  83   0.0000       1.434110        39.0241 
  84   0.0000       1.592522        43.3347 
  85   0.0000       1.623347        44.1735 
  86   0.0000       1.733733        47.1773 
  87   0.0000       1.755505        47.7697 
  88   0.0000       1.841439        50.1081 
  89   0.0000       1.862116        50.6707 
  90   0.0000       1.879377        51.1405 
  91   0.0000       1.930908        52.5427 
  92   0.0000       1.952360        53.1264 
  93   0.0000       1.996096        54.3165 
  94   0.0000       2.005732        54.5787 
  95   0.0000       2.033404        55.3317 
  96   0.0000       2.054983        55.9189 
  97   0.0000       2.095376        57.0181 
  98   0.0000       2.134607        58.0856 
  99   0.0000       2.152458        58.5713 
 100   0.0000       2.177787        59.2606 
 101   0.0000       2.262753        61.5726 
 102   0.0000       2.291038        62.3423 
 103   0.0000       2.337608        63.6096 
 104   0.0000       2.372547        64.5603 
 105   0.0000       2.427373        66.0522 
 106   0.0000       2.449066        66.6425 
 107   0.0000       2.551918        69.4412 
 108   0.0000       2.598524        70.7094 
 109   0.0000       2.661757        72.4301 
 110   0.0000       2.699288        73.4514 
 111   0.0000       2.736985        74.4771 

                 SPIN DOWN ORBITALS
  NO   OCC          E(Eh)            E(eV) 
   0   1.0000     -10.167430      -276.6698 
   1   1.0000     -10.167369      -276.6682 
   2   1.0000     -10.165047      -276.6050 
   3   1.0000     -10.164055      -276.5780 
   4   1.0000     -10.163875      -276.5731 
   5   1.0000     -10.162080      -276.5242 
   6   1.0000      -0.808441       -21.9988 
   7   1.0000      -0.756318       -20.5805 
   8   1.0000      -0.698485       -19.0067 
   9   1.0000      -0.633704       -17.2440 
  10   1.0000      -0.582617       -15.8538 
  11   1.0000      -0.540524       -14.7084 
  12   1.0000      -0.477837       -13.0026 
  13   1.0000      -0.456792       -12.4299 
  14   1.0000      -0.427365       -11.6292 
  15   1.0000      -0.423356       -11.5201 
  16   1.0000      -0.399596       -10.8736 
  17   1.0000      -0.386375       -10.5138 
  18   1.0000      -0.380899       -10.3648 
  19   1.0000      -0.345096        -9.3905 
  20   1.0000      -0.338904        -9.2221 
  21   1.0000      -0.334894        -9.1129 
  22   1.0000      -0.314726        -8.5641 
  23   1.0000      -0.305301        -8.3077 
  24   1.0000      -0.299613        -8.1529 
  25   0.0000       0.053414         1.4535 
  26   0.0000       0.072823         1.9816 
  27   0.0000       0.080121         2.1802 
  28   0.0000       0.083083         2.2608 
  29   0.0000       0.108063         2.9405 
  30   0.0000       0.119978         3.2648 
  31   0.0000       0.137040         3.7290 
  32   0.0000       0.139996         3.8095 
  33   0.0000       0.145885         3.9697 
  34   0.0000       0.156712         4.2644 
  35   0.0000       0.158997         4.3265 
  36   0.0000       0.173942         4.7332 
  37   0.0000       0.192430         5.2363 
  38   0.0000       0.206011         5.6058 
  39   0.0000       0.220656         6.0044 
  40   0.0000       0.255984         6.9657 
  41   0.0000       0.259751         7.0682 
  42   0.0000       0.283701         7.7199 
  43   0.0000       0.310644         8.4531 
  44   0.0000       0.408817        11.1245 
  45   0.0000       0.426599        11.6083 
  46   0.0000       0.436565        11.8795 
  47   0.0000       0.451978        12.2990 
  48   0.0000       0.463425        12.6104 
  49   0.0000       0.481938        13.1142 
  50   0.0000       0.514800        14.0084 
  51   0.0000       0.541191        14.7265 
  52   0.0000       0.588057        16.0018 
  53   0.0000       0.605794        16.4845 
  54   0.0000       0.631312        17.1789 
  55   0.0000       0.642696        17.4887 
  56   0.0000       0.657648        17.8955 
  57   0.0000       0.665716        18.1151 
  58   0.0000       0.670410        18.2428 
  59   0.0000       0.677459        18.4346 
  60   0.0000       0.692277        18.8378 
  61   0.0000       0.699711        19.0401 
  62   0.0000       0.704599        19.1731 
  63   0.0000       0.708579        19.2814 
  64   0.0000       0.717602        19.5269 
  65   0.0000       0.719404        19.5760 
  66   0.0000       0.723364        19.6837 
  67   0.0000       0.733012        19.9463 
  68   0.0000       0.740276        20.1439 
  69   0.0000       0.748450        20.3664 
  70   0.0000       0.755097        20.5472 
  71   0.0000       0.770864        20.9763 
  72   0.0000       0.775328        21.0977 
  73   0.0000       0.784242        21.3403 
  74   0.0000       0.803609        21.8673 
  75   0.0000       0.819658        22.3040 
  76   0.0000       0.914837        24.8940 
  77   0.0000       1.000553        27.2264 
  78   0.0000       1.027953        27.9720 
  79   0.0000       1.102026        29.9877 
  80   0.0000       1.149801        31.2877 
  81   0.0000       1.221729        33.2449 
  82   0.0000       1.399416        38.0800 
  83   0.0000       1.434110        39.0241 
  84   0.0000       1.592522        43.3347 
  85   0.0000       1.623347        44.1735 
  86   0.0000       1.733733        47.1773 
  87   0.0000       1.755505        47.7697 
  88   0.0000       1.841439        50.1081 
  89   0.0000       1.862116        50.6707 
  90   0.0000       1.879377        51.1405 
  91   0.0000       1.930908        52.5427 
  92   0.0000       1.952360        53.1264 
  93   0.0000       1.996096        54.3165 
  94   0.0000       2.005732        54.5787 
  95   0.0000       2.033404        55.3317 
  96   0.0000       2.054983        55.9189 
  97   0.0000       2.095376        57.0181 
  98   0.0000       2.134607        58.0856 
  99   0.0000       2.152458        58.5713 
 100   0.0000       2.177787        59.2606 
 101   0.0000       2.262753        61.5726 
 102   0.0000       2.291038        62.3423 
 103   0.0000       2.337608        63.6096 
 104   0.0000       2.372547        64.5603 
 105   0.0000       2.427373        66.0522 
 106   0.0000       2.449066        66.6425 
 107   0.0000       2.551918        69.4412 
 108   0.0000       2.598524        70.7094 
 109   0.0000       2.661757        72.4301 
 110   0.0000       2.699288        73.4514 
 111   0.0000       2.736985        74.4771 

                    ********************************
                    * MULLIKEN POPULATION ANALYSIS *
                    ********************************

------------------------------------------
FOD BASED MULLIKEN REDUCED ORBITAL CHARGES
------------------------------------------
  0 C s       :    -0.000000  s :    -0.000000
      pz      :     0.000000  p :     0.000000
      px      :     0.000000
      py      :     0.000000
      dz2     :     0.000000  d :     0.000000
      dxz     :     0.000000
      dyz     :     0.000000
      dx2y2   :     0.000000
      dxy     :     0.000000
  1 C s       :    -0.000000  s :    -0.000000
      pz      :     0.000000  p :     0.000000
      px      :     0.000000
      py      :     0.000000
      dz2     :     0.000000  d :     0.000000
      dxz     :     0.000000
      dyz     :     0.000000
      dx2y2   :     0.000000
      dxy     :     0.000000
  2 C s       :    -0.000000  s :    -0.000000
      pz      :     0.000000  p :     0.000000
      px      :     0.000000
      py      :     0.000000
      dz2     :     0.000000  d :     0.000000
      dxz     :     0.000000
      dyz     :     0.000000
      dx2y2   :     0.000000
      dxy     :     0.000000
  3 C s       :    -0.000000  s :    -0.000000
      pz      :     0.000000  p :     0.000000
      px      :     0.000000
      py      :     0.000000
      dz2     :     0.000000  d :     0.000000
      dxz     :     0.000000
      dyz     :     0.000000
      dx2y2   :     0.000000
      dxy     :     0.000000
  4 C s       :    -0.000000  s :    -0.000000
      pz      :     0.000000  p :     0.000000
      px      :     0.000000
      py      :     0.000000
      dz2     :     0.000000  d :     0.000000
      dxz     :     0.000000
      dyz     :     0.000000
      dx2y2   :     0.000000
      dxy     :     0.000000
  5 C s       :    -0.000000  s :    -0.000000
      pz      :     0.000000  p :     0.000000
      px      :     0.000000
      py      :     0.000000
      dz2     :     0.000000  d :     0.000000
      dxz     :     0.000000
      dyz     :     0.000000
      dx2y2   :     0.000000
      dxy     :     0.000000
  6 H s       :     0.000000  s :     0.000000
  7 H s       :     0.000000  s :     0.000000
  8 H s       :     0.000000  s :     0.000000
  9 H s       :     0.000000  s :     0.000000
 10 H s       :     0.000000  s :     0.000000
 11 H s       :     0.000000  s :     0.000000
 12 H s       :     0.000000  s :     0.000000
 13 H s       :     0.000000  s :     0.000000
 14 H s       :     0.000000  s :     0.000000
 15 H s       :     0.000000  s :     0.000000
 16 H s       :     0.000000  s :     0.000000
 17 H s       :     0.000000  s :     0.000000
 18 H s       :     0.000000  s :     0.000000
 19 H s       :     0.000000  s :     0.000000


                     *******************************
                     * LOEWDIN POPULATION ANALYSIS *
                     *******************************

-------------------------------------------
LOEWDIN ATOMIC CHARGES AND SPIN POPULATIONS
-------------------------------------------
   0 C :   -0.319933    0.000000
   1 C :   -0.223290    0.000000
   2 C :   -0.210794    0.000000
   3 C :   -0.214156    0.000000
   4 C :   -0.218593    0.000000
   5 C :   -0.321150    0.000000
   6 H :    0.113003    0.000000
   7 H :    0.110987    0.000000
   8 H :    0.106738    0.000000
   9 H :    0.106792    0.000000
  10 H :    0.107311    0.000000
  11 H :    0.104326    0.000000
  12 H :    0.104000    0.000000
  13 H :    0.105404    0.000000
  14 H :    0.105712    0.000000
  15 H :    0.105088    0.000000
  16 H :    0.108305    0.000000
  17 H :    0.109769    0.000000
  18 H :    0.108629    0.000000
  19 H :    0.111852    0.000000

----------------------------------------------------
LOEWDIN REDUCED ORBITAL CHARGES AND SPIN POPULATIONS
----------------------------------------------------
CHARGE
  0 C s       :     2.944865  s :     2.944865
      pz      :     1.098629  p :     3.298658
      px      :     1.104473
      py      :     1.095555
      dz2     :     0.004718  d :     0.076410
      dxz     :     0.023311
      dyz     :     0.023461
      dx2y2   :     0.005033
      dxy     :     0.019887
  1 C s       :     2.898055  s :     2.898055
      pz      :     1.078902  p :     3.227681
      px      :     1.075525
      py      :     1.073254
      dz2     :     0.007556  d :     0.097554
      dxz     :     0.028981
      dyz     :     0.025037
      dx2y2   :     0.014033
      dxy     :     0.021947
  2 C s       :     2.901724  s :     2.901724
      pz      :     1.073413  p :     3.210629
      px      :     1.066541
      py      :     1.070675
      dz2     :     0.009164  d :     0.098442
      dxz     :     0.026085
      dyz     :     0.026249
      dx2y2   :     0.015093
      dxy     :     0.021851
  3 C s       :     2.900277  s :     2.900277
      pz      :     1.077983  p :     3.218273
      px      :     1.058699
      py      :     1.081591
      dz2     :     0.009059  d :     0.095607
      dxz     :     0.025038
      dyz     :     0.026979
      dx2y2   :     0.021848
      dxy     :     0.012684
  4 C s       :     2.903470  s :     2.903470
      pz      :     1.081797  p :     3.221750
      px      :     1.070525
      py      :     1.069428
      dz2     :     0.021692  d :     0.093373
      dxz     :     0.014962
      dyz     :     0.014587
      dx2y2   :     0.022057
      dxy     :     0.020075
  5 C s       :     2.952713  s :     2.952713
      pz      :     1.109916  p :     3.293913
      px      :     1.110273
      py      :     1.073724
      dz2     :     0.014806  d :     0.074524
      dxz     :     0.013885
      dyz     :     0.013091
      dx2y2   :     0.015053
      dxy     :     0.017691
  6 H s       :     0.886997  s :     0.886997
  7 H s       :     0.889013  s :     0.889013
  8 H s       :     0.893262  s :     0.893262
  9 H s       :     0.893208  s :     0.893208
 10 H s       :     0.892689  s :     0.892689
 11 H s       :     0.895674  s :     0.895674
 12 H s       :     0.896000  s :     0.896000
 13 H s       :     0.894596  s :     0.894596
 14 H s       :     0.894288  s :     0.894288
 15 H s       :     0.894912  s :     0.894912
 16 H s       :     0.891695  s :     0.891695
 17 H s       :     0.890231  s :     0.890231
 18 H s       :     0.891371  s :     0.891371
 19 H s       :     0.888148  s :     0.888148

SPIN
  0 C s       :     0.000000  s :     0.000000
      pz      :     0.000000  p :     0.000000
      px      :     0.000000
      py      :     0.000000
      dz2     :     0.000000  d :     0.000000
      dxz     :     0.000000
      dyz     :     0.000000
      dx2y2   :     0.000000
      dxy     :     0.000000
  1 C s       :     0.000000  s :     0.000000
      pz      :     0.000000  p :     0.000000
      px      :     0.000000
      py      :     0.000000
      dz2     :     0.000000  d :     0.000000
      dxz     :     0.000000
      dyz     :     0.000000
      dx2y2   :     0.000000
      dxy     :     0.000000
  2 C s       :     0.000000  s :     0.000000
      pz      :     0.000000  p :     0.000000
      px      :     0.000000
      py      :     0.000000
      dz2     :     0.000000  d :     0.000000
      dxz     :     0.000000
      dyz     :     0.000000
      dx2y2   :     0.000000
      dxy     :     0.000000
  3 C s       :     0.000000  s :     0.000000
      pz      :     0.000000  p :     0.000000
      px      :     0.000000
      py      :     0.000000
      dz2     :     0.000000  d :     0.000000
      dxz     :     0.000000
      dyz     :     0.000000
      dx2y2   :     0.000000
      dxy     :     0.000000
  4 C s       :     0.000000  s :     0.000000
      pz      :     0.000000  p :     0.000000
      px      :     0.000000
      py      :     0.000000
      dz2     :     0.000000  d :     0.000000
      dxz     :     0.000000
      dyz     :     0.000000
      dx2y2   :     0.000000
      dxy     :     0.000000
  5 C s       :     0.000000  s :     0.000000
      pz      :     0.000000  p :     0.000000
      px      :     0.000000
      py      :     0.000000
      dz2     :     0.000000  d :     0.000000
      dxz     :     0.000000
      dyz     :     0.000000
      dx2y2   :     0.000000
      dxy     :     0.000000
  6 H s       :     0.000000  s :     0.000000
  7 H s       :     0.000000  s :     0.000000
  8 H s       :     0.000000  s :     0.000000
  9 H s       :     0.000000  s :     0.000000
 10 H s       :     0.000000  s :     0.000000
 11 H s       :     0.000000  s :     0.000000
 12 H s       :     0.000000  s :     0.000000
 13 H s       :     0.000000  s :     0.000000
 14 H s       :     0.000000  s :     0.000000
 15 H s       :     0.000000  s :     0.000000
 16 H s       :     0.000000  s :     0.000000
 17 H s       :     0.000000  s :     0.000000
 18 H s       :     0.000000  s :     0.000000
 19 H s       :     0.000000  s :     0.000000


                      *****************************
                      * MAYER POPULATION ANALYSIS *
                      *****************************

  NA   - Mulliken gross atomic population
  ZA   - Total nuclear charge
  QA   - Mulliken gross atomic charge
  VA   - Mayer's total valence
  BVA  - Mayer's bonded valence
  FA   - Mayer's free valence

  ATOM       NA         ZA         QA         VA         BVA        FA
  0 C      6.2667     6.0000    -0.2667     4.0125     4.0125     0.0000
  1 C      6.1561     6.0000    -0.1561     4.1243     4.1243     0.0000
  2 C      6.1578     6.0000    -0.1578     4.1560     4.1560     0.0000
  3 C      6.1271     6.0000    -0.1271     4.0772     4.0772     0.0000
  4 C      6.1518     6.0000    -0.1518     4.1068     4.1068     0.0000
  5 C      6.2777     6.0000    -0.2777     4.0216     4.0216     0.0000
  6 H      0.9106     1.0000     0.0894     0.9521     0.9521     0.0000
  7 H      0.9144     1.0000     0.0856     0.9595     0.9595     0.0000
  8 H      0.8942     1.0000     0.1058     0.9628     0.9628     0.0000
  9 H      0.9319     1.0000     0.0681     0.9440     0.9440     0.0000
 10 H      0.9193     1.0000     0.0807     0.9545     0.9545     0.0000
 11 H      0.9318     1.0000     0.0682     0.9516     0.9516     0.0000
 12 H      0.9319     1.0000     0.0681     0.9497     0.9497     0.0000
 13 H      0.9397     1.0000     0.0603     0.9460     0.9460     0.0000
 14 H      0.9232     1.0000     0.0768     0.9634     0.9634     0.0000
 15 H      0.9246     1.0000     0.0754     0.9589     0.9589     0.0000
 16 H      0.9258     1.0000     0.0742     0.9458     0.9458     0.0000
 17 H      0.9129     1.0000     0.0871     0.9531     0.9531     0.0000
 18 H      0.8980     1.0000     0.1020     0.9704     0.9704     0.0000
 19 H      0.9043     1.0000     0.0957     0.9519     0.9519     0.0000

  Mayer bond orders larger than 0.100000
B(  0-C ,  1-C ) :   1.1352 B(  0-C ,  6-H ) :   0.9570 B(  0-C ,  7-H ) :   0.9568 
B(  0-C ,  8-H ) :   0.9467 B(  1-C ,  2-C ) :   1.1294 B(  1-C ,  9-H ) :   0.9280 
B(  1-C , 10-H ) :   0.9253 B(  2-C ,  3-C ) :   1.1269 B(  2-C , 11-H ) :   0.9265 
B(  2-C , 12-H ) :   0.9243 B(  3-C ,  4-C ) :   1.0836 B(  3-C , 13-H ) :   0.9247 
B(  3-C , 14-H ) :   0.9349 B(  4-C ,  5-C ) :   1.1212 B(  4-C , 15-H ) :   0.9411 
B(  4-C , 16-H ) :   0.9392 B(  5-C , 17-H ) :   0.9601 B(  5-C , 18-H ) :   0.9572 
B(  5-C , 19-H ) :   0.9570 

-------
TIMINGS
-------

Total SCF time: 0 days 0 hours 6 min 33 sec 

Total time                  ....     393.989 sec
Sum of individual times     ....     314.299 sec  ( 79.8%)

Fock matrix formation       ....     265.788 sec  ( 67.5%)
  XC integration            ....     111.632 sec  ( 42.0% of F)
    Basis function eval.    ....       1.663 sec  (  1.5% of XC)
    Density eval.           ....       1.402 sec  (  1.3% of XC)
    XC-Functional eval.     ....       0.363 sec  (  0.3% of XC)
    XC-Potential eval.      ....       1.904 sec  (  1.7% of XC)
Diagonalization             ....       0.100 sec  (  0.0%)
Density matrix formation    ....      23.666 sec  (  6.0%)
Population analysis         ....       6.500 sec  (  1.6%)
Initial guess               ....       0.363 sec  (  0.1%)
Orbital Transformation      ....       0.000 sec  (  0.0%)
Orbital Orthonormalization  ....       0.000 sec  (  0.0%)
DIIS solution               ....      10.696 sec  (  2.7%)
Grid generation             ....       7.187 sec  (  1.8%)


-------------------------------------------------------------------------------
                          DFT DISPERSION CORRECTION                            
                                                                               
                              DFTD3 V3.1  Rev 1                                
                          USING Becke-Johnson damping                          
-------------------------------------------------------------------------------
The B3LYP functional is recognized
Active option DFTDOPT                   ...         4   

molecular C6(AA) [au] = 2517.825563 


            DFT-D V3
 parameters
 s6 scaling factor         :     1.0000 
 a1 scaling factor         :     0.3981 
 s8 scaling factor         :     1.9889 
 a2 scaling factor         :     4.4211 
 ad hoc parameters k1-k3   :    16.0000     1.3333    -4.0000 

 Edisp/kcal,au: -17.035366292543  -0.027147581319 
 E6   /kcal   :  -8.538333539 
 E8   /kcal   :  -8.497032754 
 % E8         :  49.878779288 

-------------------------   ----------------
Dispersion correction           -0.027147581
-------------------------   ----------------


-------------------------   --------------------
FINAL SINGLE POINT ENERGY      -236.706074225780
-------------------------   --------------------

------------------------------------------------------------------------------
                         ORCA SCF GRADIENT CALCULATION
------------------------------------------------------------------------------

Gradient of the Kohn-Sham DFT energy:
Kohn-Sham wavefunction type      ... UKS
Hartree-Fock exchange scaling    ...    0.200
Number of operators              ...    2
Number of atoms                  ...   20
Basis set dimensions             ...  112
Integral neglect threshold       ... 1.0e-12
Integral primitive cutoff        ... 1.0e-14

Nuclear repulsion gradient       ... done
One Electron Gradient            ... done
Pre-screening matrix             ... done
Starting the two electron gradient:
Two electron gradient done
Exchange-correlation gradient    ... done
Dispersion correction            ... done

------------------
CARTESIAN GRADIENT
------------------

   1   C   :    0.007223236   -0.012295224    0.006441792
   2   C   :    0.019367322    0.008547518    0.015019540
   3   C   :   -0.004864002    0.015200807    0.016999926
   4   C   :    0.000666392    0.027554380   -0.021095509
   5   C   :   -0.016557011    0.004088818    0.002642653
   6   C   :   -0.000389156   -0.017974672    0.007000970
   7   H   :    0.001788119   -0.002512241   -0.008563764
   8   H   :    0.002618259   -0.002421246   -0.002787427
   9   H   :   -0.001622000   -0.001422691   -0.002114000
  10   H   :   -0.006462402   -0.004644046   -0.000524621
  11   H   :   -0.002071341   -0.003425374    0.000785979
  12   H   :    0.003327458    0.000219893   -0.001502208
  13   H   :    0.006103313    0.002293782   -0.007924346
  14   H   :    0.002227914   -0.004261253   -0.001283210
  15   H   :   -0.003873794   -0.001857365   -0.002503020
  16   H   :   -0.004401919    0.000080179   -0.005258906
  17   H   :    0.003511888   -0.001730556    0.006089104
  18   H   :   -0.005086333   -0.002099757   -0.008326606
  19   H   :   -0.005542569   -0.002168767    0.000193878
  20   H   :    0.004036626   -0.001172185    0.006709775

Difference to translation invariance:
           :    0.0000000000    0.0000000000   -0.0000000000

Norm of the cartesian gradient     ...    0.0632075123
RMS gradient                       ...    0.0081600547
MAX gradient                       ...    0.0275543802

-------
TIMINGS
-------

Total SCF gradient time            ...       12.034 sec

One electron gradient       ....       0.091 sec  (  0.8%)
Prescreening matrices       ....       0.049 sec  (  0.4%)
Two electron gradient       ....       5.517 sec  ( 45.8%)
XC gradient                 ....       6.029 sec  ( 50.1%)
------------------------------------------------------------------------------
                         ORCA GEOMETRY RELAXATION STEP
------------------------------------------------------------------------------

Reading the OPT-File                    .... done
Getting information on internals        .... done
Copying old internal coords+grads       .... done
Making the new internal coordinates     .... (new redundants).... done
Validating the new internal coordinates .... (new redundants).... done
Calculating the B-matrix                .... done
Calculating the G,G- and P matrices     .... done
Transforming gradient to internals      .... done
Projecting the internal gradient        .... done
Number of atoms                         ....  20
Number of internal coordinates          .... 100
Current Energy                          ....  -236.706074226 Eh
Current gradient norm                   ....     0.063207512 Eh/bohr
Maximum allowed component of the step   ....  0.300
Current trust radius                    ....  0.300
Evaluating the initial hessian          ....  (Almloef) done
Projecting the Hessian                  .... done
Forming the augmented Hessian           .... done
Diagonalizing the augmented Hessian     .... done
Last element of RFO vector              ....  0.964960024
Lowest eigenvalues of augmented Hessian:
 -0.015307367  0.012890976  0.013426257  0.013477290  0.013773862
Length of the computed step             ....  0.271925188
The final length of the internal step   ....  0.271925188
Converting the step to cartesian space:
 Initial RMS(Int)=    0.0271925188
Transforming coordinates:
 Iter   0:  RMS(Cart)=    0.0962281620 RMS(Int)=    0.0273167812
 Iter   1:  RMS(Cart)=    0.0021220270 RMS(Int)=    0.0011802743
 Iter   2:  RMS(Cart)=    0.0001262833 RMS(Int)=    0.0000681039
 Iter   3:  RMS(Cart)=    0.0000078993 RMS(Int)=    0.0000058467
 Iter   4:  RMS(Cart)=    0.0000005498 RMS(Int)=    0.0000004112
 Iter   5:  RMS(Cart)=    0.0000000451 RMS(Int)=    0.0000000350
done
Storing new coordinates                 .... done

                                .--------------------.
          ----------------------|Geometry convergence|-------------------------
          Item                value                   Tolerance       Converged
          ---------------------------------------------------------------------
          RMS gradient        0.0071632356            0.0001000000      NO
          MAX gradient        0.0300526875            0.0003000000      NO
          RMS step            0.0271925188            0.0020000000      NO
          MAX step            0.0707490926            0.0040000000      NO
          ........................................................
          Max(Bonds)      0.0373      Max(Angles)    2.50
          Max(Dihed)        4.05      Max(Improp)    0.00
          ---------------------------------------------------------------------

The optimization has not yet converged - more geometry cycles are needed


    ---------------------------------------------------------------------------
                         Redundant Internal Coordinates
                            (Angstroem and degrees)

        Definition                    Value    dE/dq     Step     New-Value
    ----------------------------------------------------------------------------
     1. B(C   1,C   0)                1.5031 -0.020576  0.0255    1.5285   
     2. B(C   2,C   1)                1.4999 -0.026325  0.0322    1.5321   
     3. B(C   3,C   2)                1.5001 -0.029325  0.0359    1.5360   
     4. B(C   4,C   3)                1.5040 -0.030053  0.0373    1.5413   
     5. B(C   5,C   4)                1.5115 -0.024126  0.0308    1.5423   
     6. B(H   6,C   0)                1.1092  0.002059 -0.0031    1.1061   
     7. B(H   7,C   0)                1.1023 -0.002085  0.0031    1.1054   
     8. B(H   8,C   0)                1.0994 -0.002993  0.0044    1.1037   
     9. B(H   9,C   1)                1.1199  0.006457 -0.0101    1.1098   
    10. B(H  10,C   1)                1.1002 -0.003397  0.0050    1.1052   
    11. B(H  11,C   2)                1.1016 -0.003206  0.0047    1.1063   
    12. B(H  12,C   2)                1.1197  0.006587 -0.0103    1.1094   
    13. B(H  13,C   3)                1.1137  0.003507 -0.0054    1.1083   
    14. B(H  14,C   3)                1.1023 -0.002083  0.0031    1.1054   
    15. B(H  15,C   4)                1.1138  0.005499 -0.0084    1.1053   
    16. B(H  16,C   4)                1.1145  0.005845 -0.0090    1.1055   
    17. B(H  17,C   5)                1.1139  0.005432 -0.0083    1.1055   
    18. B(H  18,C   5)                1.1095  0.003781 -0.0057    1.1038   
    19. B(H  19,C   5)                1.1152  0.007065 -0.0109    1.1043   
    20. A(H   7,C   0,H   8)          108.83  0.002252   -0.71    108.12   
    21. A(C   1,C   0,H   7)          109.18 -0.004089    0.67    109.84   
    22. A(C   1,C   0,H   6)          106.64 -0.012663    2.34    108.98   
    23. A(H   6,C   0,H   7)          109.37  0.006572   -0.93    108.44   
    24. A(H   6,C   0,H   8)          108.57  0.005199   -0.83    107.74   
    25. A(C   1,C   0,H   8)          114.16  0.002899   -0.55    113.61   
    26. A(C   2,C   1,H  10)          110.87  0.001912   -0.63    110.24   
    27. A(C   0,C   1,H  10)          112.68  0.004216   -1.26    111.42   
    28. A(C   2,C   1,H   9)          106.21 -0.000651    0.94    107.15   
    29. A(C   0,C   1,H   9)          106.47  0.000612    0.49    106.96   
    30. A(H   9,C   1,H  10)          106.08  0.000129   -0.57    105.51   
    31. A(C   0,C   1,C   2)          113.90 -0.006153    1.11    115.01   
    32. A(H  11,C   2,H  12)          107.67  0.000446   -1.11    106.56   
    33. A(C   1,C   2,C   3)          114.05 -0.010380    1.92    115.97   
    34. A(C   3,C   2,H  11)          111.32  0.003519   -1.00    110.31   
    35. A(C   1,C   2,H  11)          110.76  0.005385   -1.37    109.39   
    36. A(C   1,C   2,H  12)          106.20 -0.000283    1.00    107.19   
    37. A(C   3,C   2,H  12)          106.42  0.001479    0.59    107.01   
    38. A(C   2,C   3,C   4)          111.92 -0.013503    2.45    114.38   
    39. A(H  13,C   3,H  14)          106.15 -0.000844   -0.89    105.27   
    40. A(C   4,C   3,H  14)          113.22  0.008748   -2.02    111.20   
    41. A(C   2,C   3,H  14)          109.92  0.001870   -0.31    109.61   
    42. A(C   4,C   3,H  13)          108.28  0.000411    0.60    108.87   
    43. A(C   2,C   3,H  13)          106.98  0.003780    0.12    107.09   
    44. A(H  15,C   4,H  16)          107.51  0.000276   -1.43    106.08   
    45. A(C   5,C   4,H  16)          109.28  0.003446   -0.53    108.75   
    46. A(C   3,C   4,H  16)          109.46  0.003690   -0.45    109.01   
    47. A(C   5,C   4,H  15)          109.99  0.004118   -0.46    109.52   
    48. A(C   3,C   4,H  15)          108.26  0.001758    0.21    108.47   
    49. A(C   3,C   4,C   5)          112.23 -0.012777    2.50    114.74   
    50. A(C   4,C   5,H  17)          110.59 -0.005899    1.02    111.61   
    51. A(H  18,C   5,H  19)          107.82  0.003883   -0.67    107.15   
    52. A(H  17,C   5,H  19)          111.07  0.006749   -1.87    109.21   
    53. A(C   4,C   5,H  19)          111.96 -0.001186   -0.05    111.91   
    54. A(H  17,C   5,H  18)          105.72  0.002774    0.22    105.94   
    55. A(C   4,C   5,H  18)          109.44 -0.006057    1.38    110.82   
    56. D(H   9,C   1,C   0,H   8)   -174.17 -0.001279    0.44   -173.73   
    57. D(H  10,C   1,C   0,H   7)    179.68 -0.000377    0.17    179.86   
    58. D(H   9,C   1,C   0,H   7)     63.79 -0.003146    1.23     65.02   
    59. D(H  10,C   1,C   0,H   8)    -58.27  0.001490   -0.62    -58.90   
    60. D(H   9,C   1,C   0,H   6)    -54.27 -0.001758    0.69    -53.59   
    61. D(C   2,C   1,C   0,H   8)     69.13  0.002533   -1.65     67.48   
    62. D(C   2,C   1,C   0,H   7)    -52.91  0.000666   -0.86    -53.77   
    63. D(C   2,C   1,C   0,H   6)   -170.97  0.002054   -1.40   -172.38   
    64. D(H  10,C   1,C   0,H   6)     61.62  0.001011   -0.37     61.25   
    65. D(H  11,C   2,C   1,H   9)    -58.29  0.000703   -0.92    -59.21   
    66. D(C   3,C   2,C   1,H  10)     60.40 -0.000991    0.50     60.91   
    67. D(C   3,C   2,C   1,C   0)    -67.93 -0.003306    1.86    -66.07   
    68. D(H  11,C   2,C   1,C   0)     58.57 -0.002353    0.89     59.46   
    69. D(H  11,C   2,C   1,H  10)   -173.09 -0.000038   -0.46   -173.56   
    70. D(H  12,C   2,C   1,H  10)    -56.47  0.003104   -1.93    -58.39   
    71. D(H  12,C   2,C   1,H   9)     58.34  0.003845   -2.38     55.95   
    72. D(H  12,C   2,C   1,C   0)    175.20  0.000789   -0.57    174.63   
    73. D(C   3,C   2,C   1,H   9)    175.21 -0.000250    0.05    175.25   
    74. D(H  14,C   3,C   2,H  11)    -69.43  0.000072    1.20    -68.23   
    75. D(H  14,C   3,C   2,C   1)     56.78  0.001948    0.05     56.83   
    76. D(H  13,C   3,C   2,H  12)    -71.64 -0.001207    1.59    -70.06   
    77. D(H  13,C   3,C   2,H  11)     45.40  0.002064    0.07     45.47   
    78. D(H  13,C   3,C   2,C   1)    171.62  0.003940   -1.09    170.53   
    79. D(C   4,C   3,C   2,H  11)    163.85 -0.002714    2.25    166.10   
    80. D(C   4,C   3,C   2,H  12)     46.80 -0.005985    3.77     50.57   
    81. D(H  14,C   3,C   2,H  12)    173.52 -0.003198    2.72    176.24   
    82. D(C   4,C   3,C   2,C   1)    -69.94 -0.000838    1.10    -68.84   
    83. D(H  15,C   4,C   3,C   2)    -20.83  0.002656   -2.51    -23.34   
    84. D(C   5,C   4,C   3,H  14)    -24.16  0.002296   -1.30    -25.47   
    85. D(C   5,C   4,C   3,H  13)   -141.58 -0.002128    0.60   -140.98   
    86. D(C   5,C   4,C   3,C   2)    100.75  0.000866   -1.35     99.40   
    87. D(H  16,C   4,C   3,H  14)     97.35  0.000739   -0.63     96.73   
    88. D(H  16,C   4,C   3,H  13)    -20.06 -0.003685    1.28    -18.78   
    89. D(H  16,C   4,C   3,C   2)   -137.74 -0.000691   -0.67   -138.41   
    90. D(H  15,C   4,C   3,H  14)   -145.74  0.004086   -2.47   -148.21   
    91. D(H  15,C   4,C   3,H  13)     96.84 -0.000337   -0.56     96.28   
    92. D(H  19,C   5,C   4,H  16)    -25.20  0.001856   -2.35    -27.55   
    93. D(H  19,C   5,C   4,H  15)   -143.00 -0.002950   -0.02   -143.02   
    94. D(H  19,C   5,C   4,C   3)     96.42  0.000465   -1.63     94.79   
    95. D(H  18,C   5,C   4,H  16)   -144.68  0.001766   -2.39   -147.07   
    96. D(H  18,C   5,C   4,H  15)     97.52 -0.003040   -0.06     97.46   
    97. D(H  18,C   5,C   4,C   3)    -23.07  0.000375   -1.67    -24.74   
    98. D(H  17,C   5,C   4,H  16)     99.24  0.005380   -4.05     95.19   
    99. D(H  17,C   5,C   4,H  15)    -18.55  0.000574   -1.73    -20.28   
   100. D(H  17,C   5,C   4,C   3)   -139.14  0.003989   -3.33   -142.47   
    ----------------------------------------------------------------------------

Time needed for optimization step       :     2.17 sec

         *************************************************************
         *                GEOMETRY OPTIMIZATION CYCLE   2            *
         *************************************************************
---------------------------------
CARTESIAN COORDINATES (ANGSTROEM)
---------------------------------
  C     -2.005970    1.025581    0.207119
  C     -1.385098    0.035497   -0.778111
  C     -0.758421   -1.207655   -0.138322
  C      0.477185   -0.961084    0.740195
  C      1.729952   -0.510614   -0.036481
  C      1.995635    1.008317   -0.007158
  H     -2.544852    1.807321   -0.360214
  H     -2.731578    0.502940    0.856931
  H     -1.266320    1.528670    0.853645
  H     -2.202189   -0.315235   -1.442175
  H     -0.655683    0.531994   -1.443637
  H     -1.531422   -1.757188    0.431221
  H     -0.439796   -1.875576   -0.964826
  H      0.701794   -1.913857    1.259998
  H      0.225093   -0.244104    1.542835
  H      1.631910   -0.847753   -1.084564
  H      2.614138   -1.033753    0.371775
  H      2.384783    1.372212   -0.975851
  H      1.060371    1.566419    0.171985
  H      2.700469    1.287869    0.795633

----------------------------
CARTESIAN COORDINATES (A.U.)
----------------------------
  NO LB      ZA    FRAG     MASS         X           Y           Z
   0 C     6.0000    0    12.011   -3.790734    1.938067    0.391398
   1 C     6.0000    0    12.011   -2.617457    0.067079   -1.470416
   2 C     6.0000    0    12.011   -1.433208   -2.282138   -0.261390
   3 C     6.0000    0    12.011    0.901749   -1.816186    1.398766
   4 C     6.0000    0    12.011    3.269136   -0.964920   -0.068940
   5 C     6.0000    0    12.011    3.771204    1.905443   -0.013527
   6 H     1.0000    0     1.008   -4.809074    3.415341   -0.680705
   7 H     1.0000    0     1.008   -5.161934    0.950418    1.619366
   8 H     1.0000    0     1.008   -2.392998    2.888767    1.613154
   9 H     1.0000    0     1.008   -4.161534   -0.595707   -2.725315
  10 H     1.0000    0     1.008   -1.239061    1.005323   -2.728079
  11 H     1.0000    0     1.008   -2.893967   -3.320605    0.814890
  12 H     1.0000    0     1.008   -0.831094   -3.544325   -1.823257
  13 H     1.0000    0     1.008    1.326198   -3.616665    2.381052
  14 H     1.0000    0     1.008    0.425365   -0.461289    2.915536
  15 H     1.0000    0     1.008    3.083862   -1.602022   -2.049529
  16 H     1.0000    0     1.008    4.940005   -1.953511    0.702553
  17 H     1.0000    0     1.008    4.506586    2.593106   -1.844092
  18 H     1.0000    0     1.008    2.003810    2.960103    0.325005
  19 H     1.0000    0     1.008    5.103147    2.433720    1.503529

--------------------------------
INTERNAL COORDINATES (ANGSTROEM)
--------------------------------
 C      0   0   0     0.000000000000     0.00000000     0.00000000
 C      1   0   0     1.528536890753     0.00000000     0.00000000
 C      2   1   0     1.532149564208   114.99521006     0.00000000
 C      3   2   1     1.536004800566   115.95147796   293.94788253
 C      4   3   2     1.541290153936   114.36494482   291.15836052
 C      5   4   3     1.542270029281   114.72632801    99.38937519
 H      1   2   3     1.106064214026   108.97085382   187.61093056
 H      1   2   3     1.105403127837   109.83305333   306.23571910
 H      1   2   3     1.103710044906   113.61612640    67.47397541
 H      2   1   3     1.109788773462   106.93767812   118.79929050
 H      2   1   3     1.105206682905   111.42157113   233.62987373
 H      3   2   1     1.106297997767   109.40359131    59.46924732
 H      3   2   1     1.109391452902   107.15000782   174.62599885
 H      4   3   2     1.108341014207   107.05347053   170.51794729
 H      4   3   2     1.105369696840   109.63174088    56.82829009
 H      5   4   3     1.105329310941   108.45583369   336.63779998
 H      5   4   3     1.105501146077   109.00717499   221.57764251
 H      6   5   4     1.105541561450   111.60175952   217.51699112
 H      6   5   4     1.103761875054   110.79961927   335.27251791
 H      6   5   4     1.104271380040   111.90702572    94.79092953

---------------------------
INTERNAL COORDINATES (A.U.)
---------------------------
 C      0   0   0     0.000000000000     0.00000000     0.00000000
 C      1   0   0     2.888516109118     0.00000000     0.00000000
 C      2   1   0     2.895343072560   114.99521006     0.00000000
 C      3   2   1     2.902628413459   115.95147796   293.94788253
 C      4   3   2     2.912616283848   114.36494482   291.15836052
 C      5   4   3     2.914467979896   114.72632801    99.38937519
 H      1   2   3     2.090158451040   108.97085382   187.61093056
 H      1   2   3     2.088909179192   109.83305333   306.23571910
 H      1   2   3     2.085709716130   113.61612640    67.47397541
 H      2   1   3     2.097196848343   106.93767812   118.79929050
 H      2   1   3     2.088537952069   111.42157113   233.62987373
 H      3   2   1     2.090600238285   109.40359131    59.46924732
 H      3   2   1     2.096446021299   107.15000782   174.62599885
 H      4   3   2     2.094460979843   107.05347053   170.51794729
 H      4   3   2     2.088846003764   109.63174088    56.82829009
 H      5   4   3     2.088769685474   108.45583369   336.63779998
 H      5   4   3     2.089094406821   109.00717499   221.57764251
 H      6   5   4     2.089170780808   111.60175952   217.51699112
[...]
  32   0.0000       0.137850         3.7511 
  33   0.0000       0.142878         3.8879 
  34   0.0000       0.156727         4.2648 
  35   0.0000       0.163257         4.4424 
  36   0.0000       0.168327         4.5804 
  37   0.0000       0.174013         4.7351 
  38   0.0000       0.204598         5.5674 
  39   0.0000       0.217184         5.9099 
  40   0.0000       0.237280         6.4567 
  41   0.0000       0.245577         6.6825 
  42   0.0000       0.270425         7.3586 
  43   0.0000       0.295045         8.0286 
  44   0.0000       0.396162        10.7801 
  45   0.0000       0.422972        11.5097 
  46   0.0000       0.428387        11.6570 
  47   0.0000       0.447269        12.1708 
  48   0.0000       0.459785        12.5114 
  49   0.0000       0.468693        12.7538 
  50   0.0000       0.482506        13.1297 
  51   0.0000       0.565279        15.3820 
  52   0.0000       0.577020        15.7015 
  53   0.0000       0.607101        16.5200 
  54   0.0000       0.623802        16.9745 
  55   0.0000       0.641475        17.4554 
  56   0.0000       0.651192        17.7198 
  57   0.0000       0.658061        17.9068 
  58   0.0000       0.668087        18.1796 
  59   0.0000       0.684570        18.6281 
  60   0.0000       0.693005        18.8576 
  61   0.0000       0.695658        18.9298 
  62   0.0000       0.700685        19.0666 
  63   0.0000       0.703998        19.1568 
  64   0.0000       0.711156        19.3515 
  65   0.0000       0.717886        19.5347 
  66   0.0000       0.730582        19.8801 
  67   0.0000       0.736731        20.0475 
  68   0.0000       0.740268        20.1437 
  69   0.0000       0.749978        20.4079 
  70   0.0000       0.755460        20.5571 
  71   0.0000       0.762894        20.7594 
  72   0.0000       0.773378        21.0447 
  73   0.0000       0.781703        21.2712 
  74   0.0000       0.789645        21.4873 
  75   0.0000       0.860438        23.4137 
  76   0.0000       0.921882        25.0857 
  77   0.0000       0.959629        26.1128 
  78   0.0000       1.058203        28.7952 
  79   0.0000       1.080400        29.3992 
  80   0.0000       1.125431        30.6245 
  81   0.0000       1.212882        33.0042 
  82   0.0000       1.421933        38.6928 
  83   0.0000       1.447614        39.3916 
  84   0.0000       1.566146        42.6170 
  85   0.0000       1.593733        43.3677 
  86   0.0000       1.688421        45.9443 
  87   0.0000       1.708222        46.4831 
  88   0.0000       1.817063        49.4448 
  89   0.0000       1.855539        50.4918 
  90   0.0000       1.875823        51.0437 
  91   0.0000       1.916028        52.1378 
  92   0.0000       1.942748        52.8649 
  93   0.0000       1.952033        53.1175 
  94   0.0000       1.973317        53.6967 
  95   0.0000       2.019270        54.9471 
  96   0.0000       2.040629        55.5283 
  97   0.0000       2.108232        57.3679 
  98   0.0000       2.148090        58.4525 
  99   0.0000       2.183174        59.4072 
 100   0.0000       2.198409        59.8217 
 101   0.0000       2.239697        60.9452 
 102   0.0000       2.260715        61.5172 
 103   0.0000       2.279431        62.0265 
 104   0.0000       2.340534        63.6892 
 105   0.0000       2.372919        64.5704 
 106   0.0000       2.396210        65.2042 
 107   0.0000       2.536820        69.0304 
 108   0.0000       2.581420        70.2440 
 109   0.0000       2.630038        71.5670 
 110   0.0000       2.661952        72.4354 
 111   0.0000       2.691289        73.2337 

                    ********************************
                    * MULLIKEN POPULATION ANALYSIS *
                    ********************************

------------------------------------------
FOD BASED MULLIKEN REDUCED ORBITAL CHARGES
------------------------------------------
  0 C s       :    -0.000000  s :    -0.000000
      pz      :     0.000000  p :     0.000000
      px      :     0.000000
      py      :     0.000000
      dz2     :     0.000000  d :     0.000000
      dxz     :     0.000000
      dyz     :     0.000000
      dx2y2   :     0.000000
      dxy     :     0.000000
  1 C s       :    -0.000000  s :    -0.000000
      pz      :     0.000000  p :     0.000000
      px      :     0.000000
      py      :     0.000000
      dz2     :     0.000000  d :     0.000000
      dxz     :     0.000000
      dyz     :     0.000000
      dx2y2   :     0.000000
      dxy     :     0.000000
  2 C s       :    -0.000000  s :    -0.000000
      pz      :     0.000000  p :     0.000000
      px      :     0.000000
      py      :     0.000000
      dz2     :     0.000000  d :     0.000000
      dxz     :     0.000000
      dyz     :     0.000000
      dx2y2   :     0.000000
      dxy     :     0.000000
  3 C s       :    -0.000000  s :    -0.000000
      pz      :     0.000000  p :     0.000000
      px      :     0.000000
      py      :     0.000000
      dz2     :     0.000000  d :     0.000000
      dxz     :     0.000000
      dyz     :     0.000000
      dx2y2   :     0.000000
      dxy     :     0.000000
  4 C s       :    -0.000000  s :    -0.000000
      pz      :     0.000000  p :     0.000000
      px      :     0.000000
      py      :     0.000000
      dz2     :     0.000000  d :     0.000000
      dxz     :     0.000000
      dyz     :     0.000000
      dx2y2   :     0.000000
      dxy     :     0.000000
  5 C s       :    -0.000000  s :    -0.000000
      pz      :     0.000000  p :     0.000000
      px      :     0.000000
      py      :     0.000000
      dz2     :     0.000000  d :     0.000000
      dxz     :     0.000000
      dyz     :     0.000000
      dx2y2   :     0.000000
      dxy     :     0.000000
  6 H s       :     0.000000  s :     0.000000
  7 H s       :     0.000000  s :     0.000000
  8 H s       :     0.000000  s :     0.000000
  9 H s       :     0.000000  s :     0.000000
 10 H s       :     0.000000  s :     0.000000
 11 H s       :     0.000000  s :     0.000000
 12 H s       :     0.000000  s :     0.000000
 13 H s       :     0.000000  s :     0.000000
 14 H s       :     0.000000  s :     0.000000
 15 H s       :     0.000000  s :     0.000000
 16 H s       :     0.000000  s :     0.000000
 17 H s       :     0.000000  s :     0.000000
 18 H s       :     0.000000  s :     0.000000
 19 H s       :     0.000000  s :     0.000000


                     *******************************
                     * LOEWDIN POPULATION ANALYSIS *
                     *******************************

-------------------------------------------
LOEWDIN ATOMIC CHARGES AND SPIN POPULATIONS
-------------------------------------------
   0 C :   -0.323362    0.000000
   1 C :   -0.221259    0.000000
   2 C :   -0.211348    0.000000
   3 C :   -0.213541    0.000000
   4 C :   -0.216647    0.000000
   5 C :   -0.321775    0.000000
   6 H :    0.111719    0.000000
   7 H :    0.109163    0.000000
   8 H :    0.108377    0.000000
   9 H :    0.108103    0.000000
  10 H :    0.104502    0.000000
  11 H :    0.106009    0.000000
  12 H :    0.105937    0.000000
  13 H :    0.109447    0.000000
  14 H :    0.104611    0.000000
  15 H :    0.104806    0.000000
  16 H :    0.107776    0.000000
  17 H :    0.110379    0.000000
  18 H :    0.109427    0.000000
  19 H :    0.107676    0.000000

----------------------------------------------------
LOEWDIN REDUCED ORBITAL CHARGES AND SPIN POPULATIONS
----------------------------------------------------
CHARGE
  0 C s       :     2.950998  s :     2.950998
      pz      :     1.098604  p :     3.299010
      px      :     1.108833
      py      :     1.091572
      dz2     :     0.005687  d :     0.073355
      dxz     :     0.022702
      dyz     :     0.020043
      dx2y2   :     0.007777
      dxy     :     0.017147
  1 C s       :     2.910291  s :     2.910291
      pz      :     1.076787  p :     3.220160
      px      :     1.080520
      py      :     1.062854
      dz2     :     0.007250  d :     0.090807
      dxz     :     0.026276
      dyz     :     0.024365
      dx2y2   :     0.014259
      dxy     :     0.018658
  2 C s       :     2.914076  s :     2.914076
      pz      :     1.078749  p :     3.206893
      px      :     1.061361
      py      :     1.066784
      dz2     :     0.007591  d :     0.090378
      dxz     :     0.023521
      dyz     :     0.025707
      dx2y2   :     0.015070
      dxy     :     0.018489
  3 C s       :     2.913818  s :     2.913818
      pz      :     1.077258  p :     3.210761
      px      :     1.051351
      py      :     1.082151
      dz2     :     0.011629  d :     0.088962
      dxz     :     0.021177
      dyz     :     0.021431
      dx2y2   :     0.022058
      dxy     :     0.012667
  4 C s       :     2.912318  s :     2.912318
      pz      :     1.086182  p :     3.214789
      px      :     1.067673
      py      :     1.060933
      dz2     :     0.017968  d :     0.089541
      dxz     :     0.015629
      dyz     :     0.016406
      dx2y2   :     0.023097
      dxy     :     0.016441
  5 C s       :     2.952520  s :     2.952520
      pz      :     1.112423  p :     3.295621
      px      :     1.111752
      py      :     1.071445
      dz2     :     0.012890  d :     0.073634
      dxz     :     0.013365
      dyz     :     0.016148
      dx2y2   :     0.017384
      dxy     :     0.013848
  6 H s       :     0.888281  s :     0.888281
  7 H s       :     0.890837  s :     0.890837
  8 H s       :     0.891623  s :     0.891623
  9 H s       :     0.891897  s :     0.891897
 10 H s       :     0.895498  s :     0.895498
 11 H s       :     0.893991  s :     0.893991
 12 H s       :     0.894063  s :     0.894063
 13 H s       :     0.890553  s :     0.890553
 14 H s       :     0.895389  s :     0.895389
 15 H s       :     0.895194  s :     0.895194
 16 H s       :     0.892224  s :     0.892224
 17 H s       :     0.889621  s :     0.889621
 18 H s       :     0.890573  s :     0.890573
 19 H s       :     0.892324  s :     0.892324

SPIN
  0 C s       :     0.000000  s :     0.000000
      pz      :     0.000000  p :     0.000000
      px      :     0.000000
      py      :     0.000000
      dz2     :     0.000000  d :     0.000000
      dxz     :     0.000000
      dyz     :     0.000000
      dx2y2   :     0.000000
      dxy     :     0.000000
  1 C s       :     0.000000  s :     0.000000
      pz      :     0.000000  p :     0.000000
      px      :     0.000000
      py      :     0.000000
      dz2     :     0.000000  d :     0.000000
      dxz     :     0.000000
      dyz     :     0.000000
      dx2y2   :     0.000000
      dxy     :     0.000000
  2 C s       :     0.000000  s :     0.000000
      pz      :     0.000000  p :     0.000000
      px      :     0.000000
      py      :     0.000000
      dz2     :     0.000000  d :     0.000000
      dxz     :     0.000000
      dyz     :     0.000000
      dx2y2   :     0.000000
      dxy     :     0.000000
  3 C s       :     0.000000  s :     0.000000
      pz      :     0.000000  p :     0.000000
      px      :     0.000000
      py      :     0.000000
      dz2     :     0.000000  d :     0.000000
      dxz     :     0.000000
      dyz     :     0.000000
      dx2y2   :     0.000000
      dxy     :     0.000000
  4 C s       :     0.000000  s :     0.000000
      pz      :     0.000000  p :     0.000000
      px      :     0.000000
      py      :     0.000000
      dz2     :     0.000000  d :     0.000000
      dxz     :     0.000000
      dyz     :     0.000000
      dx2y2   :     0.000000
      dxy     :     0.000000
  5 C s       :     0.000000  s :     0.000000
      pz      :     0.000000  p :     0.000000
      px      :     0.000000
      py      :     0.000000
      dz2     :     0.000000  d :     0.000000
      dxz     :     0.000000
      dyz     :     0.000000
      dx2y2   :     0.000000
      dxy     :     0.000000
  6 H s       :     0.000000  s :     0.000000
  7 H s       :     0.000000  s :     0.000000
  8 H s       :     0.000000  s :     0.000000
  9 H s       :     0.000000  s :     0.000000
 10 H s       :     0.000000  s :     0.000000
 11 H s       :     0.000000  s :     0.000000
 12 H s       :     0.000000  s :     0.000000
 13 H s       :     0.000000  s :     0.000000
 14 H s       :     0.000000  s :     0.000000
 15 H s       :     0.000000  s :     0.000000
 16 H s       :     0.000000  s :     0.000000
 17 H s       :     0.000000  s :     0.000000
 18 H s       :     0.000000  s :     0.000000
 19 H s       :     0.000000  s :     0.000000


                      *****************************
                      * MAYER POPULATION ANALYSIS *
                      *****************************

  NA   - Mulliken gross atomic population
  ZA   - Total nuclear charge
  QA   - Mulliken gross atomic charge
  VA   - Mayer's total valence
  BVA  - Mayer's bonded valence
  FA   - Mayer's free valence

  ATOM       NA         ZA         QA         VA         BVA        FA
  0 C      6.2727     6.0000    -0.2727     4.0031     4.0031     0.0000
  1 C      6.1474     6.0000    -0.1474     4.1098     4.1098     0.0000
  2 C      6.1518     6.0000    -0.1518     4.1235     4.1235     0.0000
  3 C      6.1311     6.0000    -0.1311     4.0759     4.0759     0.0000
  4 C      6.1464     6.0000    -0.1464     4.1214     4.1214     0.0000
  5 C      6.2656     6.0000    -0.2656     4.0190     4.0190     0.0000
  6 H      0.9094     1.0000     0.0906     0.9515     0.9515     0.0000
  7 H      0.9122     1.0000     0.0878     0.9567     0.9567     0.0000
  8 H      0.9030     1.0000     0.0970     0.9655     0.9655     0.0000
  9 H      0.9312     1.0000     0.0688     0.9459     0.9459     0.0000
 10 H      0.9189     1.0000     0.0811     0.9543     0.9543     0.0000
 11 H      0.9307     1.0000     0.0693     0.9495     0.9495     0.0000
 12 H      0.9309     1.0000     0.0691     0.9494     0.9494     0.0000
 13 H      0.9347     1.0000     0.0653     0.9469     0.9469     0.0000
 14 H      0.9283     1.0000     0.0717     0.9595     0.9595     0.0000
 15 H      0.9308     1.0000     0.0692     0.9535     0.9535     0.0000
 16 H      0.9318     1.0000     0.0682     0.9450     0.9450     0.0000
 17 H      0.9128     1.0000     0.0872     0.9512     0.9512     0.0000
 18 H      0.8972     1.0000     0.1028     0.9617     0.9617     0.0000
 19 H      0.9131     1.0000     0.0869     0.9555     0.9555     0.0000

  Mayer bond orders larger than 0.100000
B(  0-C ,  1-C ) :   1.1255 B(  0-C ,  6-H ) :   0.9585 B(  0-C ,  7-H ) :   0.9606 
B(  0-C ,  8-H ) :   0.9537 B(  1-C ,  2-C ) :   1.1156 B(  1-C ,  9-H ) :   0.9309 
B(  1-C , 10-H ) :   0.9301 B(  2-C ,  3-C ) :   1.1197 B(  2-C , 11-H ) :   0.9308 
B(  2-C , 12-H ) :   0.9291 B(  3-C ,  4-C ) :   1.0892 B(  3-C , 13-H ) :   0.9294 
B(  3-C , 14-H ) :   0.9325 B(  4-C ,  5-C ) :   1.1402 B(  4-C , 15-H ) :   0.9373 
B(  4-C , 16-H ) :   0.9381 B(  5-C , 17-H ) :   0.9567 B(  5-C , 18-H ) :   0.9507 
B(  5-C , 19-H ) :   0.9563 

-------
TIMINGS
-------

Total SCF time: 0 days 0 hours 4 min 38 sec 

Total time                  ....     278.476 sec
Sum of individual times     ....     215.255 sec  ( 77.3%)

Fock matrix formation       ....     181.514 sec  ( 65.2%)
  XC integration            ....      85.027 sec  ( 46.8% of F)
    Basis function eval.    ....       1.309 sec  (  1.5% of XC)
    Density eval.           ....       1.062 sec  (  1.2% of XC)
    XC-Functional eval.     ....       0.285 sec  (  0.3% of XC)
    XC-Potential eval.      ....       1.322 sec  (  1.6% of XC)
Diagonalization             ....       0.071 sec  (  0.0%)
Density matrix formation    ....      11.466 sec  (  4.1%)
Population analysis         ....      11.460 sec  (  4.1%)
Initial guess               ....       0.008 sec  (  0.0%)
Orbital Transformation      ....       0.000 sec  (  0.0%)
Orbital Orthonormalization  ....       0.004 sec  (  0.0%)
DIIS solution               ....       7.806 sec  (  2.8%)
Grid generation             ....       2.928 sec  (  1.1%)


-------------------------------------------------------------------------------
                          DFT DISPERSION CORRECTION                            
                                                                               
                              DFTD3 V3.1  Rev 1                                
                          USING Becke-Johnson damping                          
-------------------------------------------------------------------------------
The B3LYP functional is recognized
Active option DFTDOPT                   ...         4   

molecular C6(AA) [au] = 2519.204737 


            DFT-D V3
 parameters
 s6 scaling factor         :     1.0000 
 a1 scaling factor         :     0.3981 
 s8 scaling factor         :     1.9889 
 a2 scaling factor         :     4.4211 
 ad hoc parameters k1-k3   :    16.0000     1.3333    -4.0000 

 Edisp/kcal,au: -16.596685584175  -0.026448499186 
 E6   /kcal   :  -8.322542212 
 E8   /kcal   :  -8.274143373 
 % E8         :  49.854191252 

-------------------------   ----------------
Dispersion correction           -0.026448499
-------------------------   ----------------


-------------------------   --------------------
FINAL SINGLE POINT ENERGY      -236.719942699900
-------------------------   --------------------

                                *** OPTIMIZATION RUN DONE ***

                            ***************************************
                            *     ORCA property calculations      *
                            ***************************************

                                    ---------------------
                                    Active property flags
                                    ---------------------
   (+) Dipole Moment


------------------------------------------------------------------------------
                       ORCA ELECTRIC PROPERTIES CALCULATION
------------------------------------------------------------------------------

Dipole Moment Calculation                       ... on
Quadrupole Moment Calculation                   ... off
Polarizability Calculation                      ... off
GBWName                                         ... orca2.gbw
Electron density file                           ... orca2.scfp
The origin for moment calculation is the CENTER OF MASS  = ( 0.001588, -0.153176 -0.017124)

-------------
DIPOLE MOMENT
-------------
                                X             Y             Z
Electronic contribution:      0.03353      -1.68143      -0.19522
Nuclear contribution   :     -0.01721       1.66025       0.18561
                        -----------------------------------------
Total Dipole Moment    :      0.01632      -0.02117      -0.00961
                        -----------------------------------------
Magnitude (a.u.)       :      0.02841
Magnitude (Debye)      :      0.07221



--------------------
Rotational spectrum 
--------------------
 
Rotational constants in cm-1:     0.149956     0.074872     0.059407 
Rotational constants in MHz :  4495.566218  2244.599819  1780.966898 

 Dipole components along the rotational axes: 
x,y,z [a.u.] :    -0.017187    -0.019117    -0.012089 
x,y,z [Debye]:    -0.043687    -0.048591    -0.030729 

 

Timings for individual modules:

Sum of individual times         ...     4543.281 sec (=  75.721 min)
GTO integral calculation        ...      116.779 sec (=   1.946 min)   2.6 %
SCF iterations                  ...     4180.834 sec (=  69.681 min)  92.0 %
SCF Gradient evaluation         ...      182.236 sec (=   3.037 min)   4.0 %
Geometry relaxation             ...       63.431 sec (=   1.057 min)   1.4 %
                             ****ORCA TERMINATED NORMALLY****
TOTAL RUN TIME: 0 days 1 hours 18 minutes 2 seconds 857 msec
