
                                 *****************
                                 * O   R   C   A *
                                 *****************

           --- An Ab Initio, DFT and Semiempirical electronic structure package ---

                  #######################################################
                  #                        -***-                        #
                  #          Department of theory and spectroscopy      #
                  #               Directorship: Frank Neese             #
                  #        Max Planck Institute fuer Kohlenforschung    #
                  #                Kaiser Wilhelm Platz 1               #
                  #                 D-45470 Muelheim/Ruhr               #
                  #                      Germany                        #
                  #                                                     #
                  #                  All rights reserved                #
                  #                        -***-                        #
                  #######################################################


                         Program Version 4.2.1 -  RELEASE  -


 With contributions from (in alphabetic order):
   Daniel Aravena         : Magnetic Suceptibility
   Michael Atanasov       : Ab Initio Ligand Field Theory (pilot matlab implementation)
   Alexander A. Auer      : GIAO ZORA, VPT2
   Ute Becker             : Parallelization
   Giovanni Bistoni       : ED, misc. LED, open-shell LED, HFLD
   Martin Brehm           : Molecular dynamics
   Dmytro Bykov           : SCF Hessian
   Vijay G. Chilkuri      : MRCI spin determinant printing, contributions to CSF-ICE
   Dipayan Datta          : RHF DLPNO-CCSD density
   Achintya Kumar Dutta   : EOM-CC, STEOM-CC
   Dmitry Ganyushin       : Spin-Orbit,Spin-Spin,Magnetic field MRCI
   Miquel Garcia          : C-PCM Hessian, Gaussian charge scheme
   Yang Guo               : DLPNO-NEVPT2, CIM, IAO-localization
   Andreas Hansen         : Spin unrestricted coupled pair/coupled cluster methods
   Benjamin Helmich-Paris : CASSCF linear response (MC-RPA)
   Lee Huntington         : MR-EOM, pCC
   Robert Izsak           : Overlap fitted RIJCOSX, COSX-SCS-MP3, EOM
   Christian Kollmar      : KDIIS, OOCD, Brueckner-CCSD(T), CCSD density
   Simone Kossmann        : Meta GGA functionals, TD-DFT gradient, OOMP2, MP2 Hessian
   Martin Krupicka        : AUTO-CI
   Lucas Lang             : DCDCAS
   Dagmar Lenk            : GEPOL surface, SMD
   Dimitrios Liakos       : Extrapolation schemes; Compound Job, initial MDCI parallelization
   Dimitrios Manganas     : Further ROCIS development; embedding schemes
   Dimitrios Pantazis     : SARC Basis sets
   Taras Petrenko         : DFT Hessian,TD-DFT gradient, ASA, ECA, R-Raman, ABS, FL, XAS/XES, NRVS
   Peter Pinski           : DLPNO-MP2, DLPNO-MP2 Gradient
   Christoph Reimann      : Effective Core Potentials
   Marius Retegan         : Local ZFS, SOC
   Christoph Riplinger    : Optimizer, TS searches, QM/MM, DLPNO-CCSD(T), (RO)-DLPNO pert. Triples
   Tobias Risthaus        : Range-separated hybrids, TD-DFT gradient, RPA, STAB
   Michael Roemelt        : Original ROCIS implementation
   Masaaki Saitow         : Open-shell DLPNO-CCSD energy and density
   Barbara Sandhoefer     : DKH picture change effects
   Avijit Sen             : IP-ROCIS
   Kantharuban Sivalingam : CASSCF convergence, NEVPT2, FIC-MRCI
   Bernardo de Souza      : ESD, SOC TD-DFT
   Georgi Stoychev        : AutoAux, RI-MP2 NMR
   Willem Van den Heuvel  : Paramagnetic NMR
   Boris Wezisla          : Elementary symmetry handling
   Frank Wennmohs         : Technical directorship


 We gratefully acknowledge several colleagues who have allowed us to
 interface, adapt or use parts of their codes:
   Stefan Grimme, W. Hujo, H. Kruse,             : VdW corrections, initial TS optimization,
                  C. Bannwarth                     DFT functionals, gCP, sTDA/sTD-DF
   Ed Valeev, F. Pavosevic, A. Kumar             : LibInt (2-el integral package), F12 methods
   Garnet Chan, S. Sharma, J. Yang, R. Olivares  : DMRG
   Ulf Ekstrom                                   : XCFun DFT Library
   Mihaly Kallay                                 : mrcc  (arbitrary order and MRCC methods)
   Andreas Klamt, Michael Diedenhofen            : otool_cosmo (COSMO solvation model)
   Jiri Pittner, Ondrej Demel                    : Mk-CCSD
   Frank Weinhold                                : gennbo (NPA and NBO analysis)
   Christopher J. Cramer and Donald G. Truhlar   : smd solvation model
   Lars Goerigk                                  : TD-DFT with DH, B97 family of functionals
   V. Asgeirsson, H. Jonsson                     : NEB implementation
   FAccTs GmbH                                   : IRC, NEB, NEB-TS, Multilevel, MM, QM/MM, CI optimization
   S Lehtola, MJT Oliveira, MAL Marques          : LibXC Library


 Your calculation uses the libint2 library for the computation of 2-el integrals
 For citations please refer to: http://libint.valeyev.net

 Your ORCA version has been built with support for libXC version: 4.2.3
 For citations please refer to: https://tddft.org/programs/libxc/

 This ORCA versions uses:
   CBLAS   interface :  Fast vector & matrix operations
   LAPACKE interface :  Fast linear algebra routines
   SCALAPACK package :  Parallel linear algebra routines


Your calculation utilizes the atom-pairwise dispersion correction
with the Becke-Johnson damping scheme (D3BJ)
Cite in your paper:
S.Grimme, S.Ehrlich, L.Goerigk, J Comput Chem, (2011), 32, 1456–1465 
S.Grimme, J.Antony, S.Ehrlich and H.Krieg, J.Chem.Phys., 132, (2010), 154104 
   

----- Orbital basis set information -----
Your calculation utilizes the basis: def2-SV(P)
   F. Weigend and R. Ahlrichs, Phys. Chem. Chem. Phys. 7, 3297 (2005).

----- AuxJ basis set information -----
Your calculation utilizes the auxiliary basis: def2/J
   F. Weigend, Phys. Chem. Chem. Phys. 8, 1057 (2006).

================================================================================
                                        WARNINGS
                       Please study these warnings very carefully!
================================================================================


WARNING: Geometry Optimization
  ===> : Switching off AutoStart
         For restart on a previous wavefunction, please use MOREAD

INFO   : the flag for use of LIBINT has been found!

================================================================================
                                       INPUT FILE
================================================================================
NAME = orca7.inp
|  1> ! UKS B3LYP def2-SV(P) def2/J D3BJ Opt
|  2> %scf Convergence VeryTight
|  3> SmearTemp 2000
|  4> maxiter 500
|  5> end
|  6> *xyz 0 1
|  7> C -2.890746 0.159205 0.703902
|  8> C -1.696904 -0.198903 -0.139813
|  9> C -0.453626 0.440486 0.446086
| 10> C 0.595706 0.422875 -0.630032
| 11> C 1.565464 -0.718612 -0.50064
| 12> C 2.898669 -0.143204 -0.038607
| 13> H -3.464535 0.986465 0.257642
| 14> H -2.536528 0.499587 1.698733
| 15> H -3.496564 -0.775203 0.797601
| 16> H -1.866882 0.204315 -1.155587
| 17> H -1.526998 -1.282493 -0.200693
| 18> H -0.059396 -0.173947 1.294265
| 19> H -0.742944 1.460445 0.7636
| 20> H 1.106673 1.416744 -0.600426
| 21> H 0.108529 0.377077 -1.637025
| 22> H 1.658647 -1.249014 -1.459398
| 23> H 1.266498 -1.46616 0.254504
| 24> H 2.625282 0.639233 0.714072
| 25> H 3.360627 0.310718 -0.939795
| 26> H 3.549027 -0.909614 0.422445
| 27> *
| 28> 
| 29>                          ****END OF INPUT****
================================================================================

                       *****************************
                       * Geometry Optimization Run *
                       *****************************

Geometry optimization settings:
Update method            Update   .... BFGS
Choice of coordinates    CoordSys .... Z-matrix Internals
Initial Hessian          InHess   .... Almoef's Model

Convergence Tolerances:
Energy Change            TolE     ....  5.0000e-06 Eh
Max. Gradient            TolMAXG  ....  3.0000e-04 Eh/bohr
RMS Gradient             TolRMSG  ....  1.0000e-04 Eh/bohr
Max. Displacement        TolMAXD  ....  4.0000e-03 bohr
RMS Displacement         TolRMSD  ....  2.0000e-03 bohr
Strict Convergence                ....  False
------------------------------------------------------------------------------
                        ORCA OPTIMIZATION COORDINATE SETUP
------------------------------------------------------------------------------

The optimization will be done in new redundant internal coordinates
Making redundant internal coordinates   ...  (new redundants) done
Evaluating the initial hessian          ...  (Almloef) done
Evaluating the coordinates              ...  done
Calculating the B-matrix                .... done
Calculating the G-matrix                .... done
Diagonalizing the G-matrix              .... done
Small eigenvalue found = 2.259e-02
Small eigenvalue found = 2.873e-02
The first mode is                       ....   46
The number of degrees of freedom        ....   54

    -----------------------------------------------------------------
                    Redundant Internal Coordinates


    -----------------------------------------------------------------
         Definition                    Initial Value    Approx d2E/dq
    -----------------------------------------------------------------
      1. B(C   1,C   0)                  1.5051         0.409344   
      2. B(C   2,C   1)                  1.5159         0.393491   
      3. B(C   3,C   2)                  1.5031         0.412313   
      4. B(C   4,C   3)                  1.5034         0.411946   
      5. B(C   5,C   4)                  1.5238         0.382164   
      6. B(H   6,C   0)                  1.1012         0.345527   
      7. B(H   7,C   0)                  1.1095         0.335190   
      8. B(H   8,C   0)                  1.1175         0.325441   
      9. B(H   9,C   1)                  1.1060         0.339523   
     10. B(H  10,C   1)                  1.0985         0.349006   
     11. B(H  11,C   2)                  1.1191         0.323608   
     12. B(H  12,C   2)                  1.1067         0.338643   
     13. B(H  13,C   3)                  1.1179         0.324999   
     14. B(H  14,C   3)                  1.1196         0.323013   
     15. B(H  15,C   4)                  1.0996         0.347560   
     16. B(H  16,C   4)                  1.1038         0.342256   
     17. B(H  17,C   5)                  1.1196         0.323013   
     18. B(H  18,C   5)                  1.1098         0.334874   
     19. B(H  19,C   5)                  1.1059         0.339723   
     20. A(H   7,C   0,H   8)          110.7567         0.283094   
     21. A(C   1,C   0,H   7)          108.8074         0.325373   
     22. A(C   1,C   0,H   6)          111.3987         0.327004   
     23. A(H   6,C   0,H   7)          107.4115         0.285743   
     24. A(H   6,C   0,H   8)          112.3104         0.284433   
     25. A(C   1,C   0,H   8)          106.1438         0.323799   
     26. A(C   2,C   1,H  10)          108.0973         0.325421   
     27. A(C   0,C   1,H  10)          112.8577         0.327544   
     28. A(C   2,C   1,H   9)          109.1020         0.323951   
     29. A(C   0,C   1,H   9)          107.8295         0.326061   
     30. A(H   9,C   1,H  10)          109.4197         0.286764   
     31. A(C   0,C   1,C   2)          109.4835         0.372401   
     32. A(H  11,C   2,H  12)          112.3741         0.283296   
     33. A(C   1,C   2,C   3)          106.9124         0.372865   
     34. A(C   3,C   2,H  11)          106.8729         0.323883   
     35. A(C   1,C   2,H  11)          110.5050         0.321412   
     36. A(C   1,C   2,H  12)          106.5714         0.323814   
     37. A(C   3,C   2,H  12)          113.4959         0.326310   
     38. A(C   2,C   3,C   4)          113.4272         0.375825   
     39. A(H  13,C   3,H  14)          105.0153         0.281416   
     40. A(C   4,C   3,H  14)          109.0892         0.323738   
     41. A(C   2,C   3,H  14)          109.9150         0.323785   
     42. A(C   4,C   3,H  13)          112.2045         0.324064   
     43. A(C   2,C   3,H  13)          106.8401         0.324111   
     44. A(H  15,C   4,H  16)          107.0231         0.286937   
     45. A(C   5,C   4,H  16)          106.5747         0.322827   
     46. A(C   3,C   4,H  16)          113.4767         0.326833   
     47. A(C   5,C   4,H  15)          111.8611         0.323643   
     48. A(C   3,C   4,H  15)          110.2337         0.327662   
     49. A(C   3,C   4,C   5)          107.6828         0.370937   
     50. A(C   4,C   5,H  17)          104.7202         0.319785   
     51. A(H  18,C   5,H  19)          112.1618         0.284948   
     52. A(H  17,C   5,H  19)          110.3445         0.283355   
     53. A(C   4,C   5,H  19)          112.2873         0.322435   
     54. A(H  17,C   5,H  18)          111.2060         0.282724   
     55. A(C   4,C   5,H  18)          105.8087         0.321676   
     56. D(H   9,C   1,C   0,H   8)    103.4941         0.013275   
     57. D(H  10,C   1,C   0,H   7)    101.7546         0.013275   
     58. D(H   9,C   1,C   0,H   7)   -137.2742         0.013275   
     59. D(H  10,C   1,C   0,H   8)    -17.4770         0.013275   
     60. D(H   9,C   1,C   0,H   6)    -19.0467         0.013275   
     61. D(C   2,C   1,C   0,H   8)   -137.9227         0.013275   
     62. D(C   2,C   1,C   0,H   7)    -18.6911         0.013275   
     63. D(C   2,C   1,C   0,H   6)     99.5364         0.013275   
     64. D(H  10,C   1,C   0,H   6)   -140.0179         0.013275   
     65. D(H  11,C   2,C   1,H   9)   -160.7835         0.012300   
     66. D(C   3,C   2,C   1,H  10)     74.0720         0.012300   
     67. D(C   3,C   2,C   1,C   0)   -162.6226         0.012300   
     68. D(H  11,C   2,C   1,C   0)     81.4262         0.012300   
     69. D(H  11,C   2,C   1,H  10)    -41.8792         0.012300   
     70. D(H  12,C   2,C   1,H  10)   -164.2434         0.012300   
     71. D(H  12,C   2,C   1,H   9)     76.8523         0.012300   
     72. D(H  12,C   2,C   1,C   0)    -40.9380         0.012300   
     73. D(C   3,C   2,C   1,H   9)    -44.8323         0.012300   
     74. D(H  14,C   3,C   2,H  11)    142.4859         0.013463   
     75. D(H  14,C   3,C   2,C   1)     24.1384         0.013463   
     76. D(H  13,C   3,C   2,H  12)     20.3552         0.013463   
     77. D(H  13,C   3,C   2,H  11)   -104.0884         0.013463   
     78. D(H  13,C   3,C   2,C   1)    137.5641         0.013463   
     79. D(C   4,C   3,C   2,H  11)     20.0692         0.013463   
     80. D(C   4,C   3,C   2,H  12)    144.5128         0.013463   
     81. D(H  14,C   3,C   2,H  12)    -93.0705         0.013463   
     82. D(C   4,C   3,C   2,C   1)    -98.2783         0.013463   
     83. D(H  15,C   4,C   3,C   2)    129.8340         0.013439   
     84. D(C   5,C   4,C   3,H  14)    129.2395         0.013439   
     85. D(C   5,C   4,C   3,H  13)     13.3032         0.013439   
     86. D(C   5,C   4,C   3,C   2)   -107.8873         0.013439   
     87. D(H  16,C   4,C   3,H  14)   -113.0566         0.013439   
     88. D(H  16,C   4,C   3,H  13)    131.0071         0.013439   
     89. D(H  16,C   4,C   3,C   2)      9.8166         0.013439   
     90. D(H  15,C   4,C   3,H  14)      6.9607         0.013439   
     91. D(H  15,C   4,C   3,H  13)   -108.9756         0.013439   
     92. D(H  19,C   5,C   4,H  16)     37.5117         0.011633   
     93. D(H  19,C   5,C   4,H  15)    -79.1376         0.011633   
     94. D(H  19,C   5,C   4,C   3)    159.5948         0.011633   
     95. D(H  18,C   5,C   4,H  16)    160.1787         0.011633   
     96. D(H  18,C   5,C   4,H  15)     43.5294         0.011633   
     97. D(H  18,C   5,C   4,C   3)    -77.7382         0.011633   
     98. D(H  17,C   5,C   4,H  16)    -82.2349         0.011633   
     99. D(H  17,C   5,C   4,H  15)    161.1157         0.011633   
    100. D(H  17,C   5,C   4,C   3)     39.8481         0.011633   
    -----------------------------------------------------------------

Number of atoms                         .... 20
Number of degrees of freedom            .... 100

Time needed for optimization step       :     3.40 sec

         *************************************************************
         *                GEOMETRY OPTIMIZATION CYCLE   1            *
         *************************************************************
---------------------------------
CARTESIAN COORDINATES (ANGSTROEM)
---------------------------------
  C     -2.890746    0.159205    0.703902
  C     -1.696904   -0.198903   -0.139813
  C     -0.453626    0.440486    0.446086
  C      0.595706    0.422875   -0.630032
  C      1.565464   -0.718612   -0.500640
  C      2.898669   -0.143204   -0.038607
  H     -3.464535    0.986465    0.257642
  H     -2.536528    0.499587    1.698733
  H     -3.496564   -0.775203    0.797601
  H     -1.866882    0.204315   -1.155587
  H     -1.526998   -1.282493   -0.200693
  H     -0.059396   -0.173947    1.294265
  H     -0.742944    1.460445    0.763600
  H      1.106673    1.416744   -0.600426
  H      0.108529    0.377077   -1.637025
  H      1.658647   -1.249014   -1.459398
  H      1.266498   -1.466160    0.254504
  H      2.625282    0.639233    0.714072
  H      3.360627    0.310718   -0.939795
  H      3.549027   -0.909614    0.422445

----------------------------
CARTESIAN COORDINATES (A.U.)
----------------------------
  NO LB      ZA    FRAG     MASS         X           Y           Z
   0 C     6.0000    0    12.011   -5.462718    0.300854    1.330182
   1 C     6.0000    0    12.011   -3.206684   -0.375872   -0.264208
   2 C     6.0000    0    12.011   -0.857229    0.832398    0.842980
   3 C     6.0000    0    12.011    1.125721    0.799118   -1.190588
   4 C     6.0000    0    12.011    2.958298   -1.357980   -0.946072
   5 C     6.0000    0    12.011    5.477691   -0.270616   -0.072957
   6 H     1.0000    0     1.008   -6.547022    1.864149    0.486873
   7 H     1.0000    0     1.008   -4.793343    0.944083    3.210140
   8 H     1.0000    0     1.008   -6.607548   -1.464921    1.507247
   9 H     1.0000    0     1.008   -3.527896    0.386099   -2.183743
  10 H     1.0000    0     1.008   -2.885608   -2.423561   -0.379255
  11 H     1.0000    0     1.008   -0.112242   -0.328712    2.445806
  12 H     1.0000    0     1.008   -1.403961    2.759841    1.442995
  13 H     1.0000    0     1.008    2.091309    2.677258   -1.134641
  14 H     1.0000    0     1.008    0.205090    0.712572   -3.093529
  15 H     1.0000    0     1.008    3.134389   -2.360294   -2.757863
  16 H     1.0000    0     1.008    2.393334   -2.770641    0.480943
  17 H     1.0000    0     1.008    4.961064    1.207975    1.349401
  18 H     1.0000    0     1.008    6.350665    0.587172   -1.775955
  19 H     1.0000    0     1.008    6.706689   -1.718921    0.798305

--------------------------------
INTERNAL COORDINATES (ANGSTROEM)
--------------------------------
 C      0   0   0     0.000000000000     0.00000000     0.00000000
 C      1   0   0     1.505109651106     0.00000000     0.00000000
 C      2   1   0     1.515861509771   109.48354850     0.00000000
 C      3   2   1     1.503142622464   106.91244192   197.37741967
 C      4   3   2     1.503384661155   113.42719680   261.72170237
 C      5   4   3     1.523812466013   107.68284977   252.11271158
 H      1   2   3     1.101245164221   111.39867197    99.53643536
 H      1   2   3     1.109512963425   108.80736063   341.30894054
 H      1   2   3     1.117547879148   106.14379389   222.07729017
 H      2   1   3     1.106017221875   107.82954671   241.41685904
 H      2   1   3     1.098517961317   112.85768189   120.44566680
 H      3   2   1     1.119085707366   110.50499722    81.42624657
 H      3   2   1     1.106723274808   106.57138443   319.06202963
 H      4   3   2     1.117917429637   106.84009096   137.56413637
 H      4   3   2     1.119586436226   109.91503898    24.13839139
 H      5   4   3     1.099648241783   110.23365772   129.83396249
 H      5   4   3     1.103834744061   113.47672994     9.81660071
 H      6   5   4     1.119586436046   104.72017307    39.84813065
 H      6   5   4     1.109770330831   105.80874259   282.26179099
 H      6   5   4     1.105856574321   112.28731880   159.59478098

---------------------------
INTERNAL COORDINATES (A.U.)
---------------------------
 C      0   0   0     0.000000000000     0.00000000     0.00000000
 C      1   0   0     2.844245042112     0.00000000     0.00000000
 C      2   1   0     2.864563110420   109.48354850     0.00000000
 C      3   2   1     2.840527896682   106.91244192   197.37741967
 C      4   3   2     2.840985283521   113.42719680   261.72170237
 C      5   4   3     2.879588240221   107.68284977   252.11271158
 H      1   2   3     2.081051766684   111.39867197    99.53643536
 H      1   2   3     2.096675642909   108.80736063   341.30894054
 H      1   2   3     2.111859433135   106.14379389   222.07729017
 H      2   1   3     2.090069648744   107.82954671   241.41685904
 H      2   1   3     2.075898100083   112.85768189   120.44566680
 H      3   2   1     2.114765507307   110.50499722    81.42624657
 H      3   2   1     2.091403895423   106.57138443   319.06202963
 H      4   3   2     2.112557782351   106.84009096   137.56413637
 H      4   3   2     2.115711747721   109.91503898    24.13839139
 H      5   4   3     2.078034020618   110.23365772   129.83396249
 H      5   4   3     2.085945363382   113.47672994     9.81660071
 H      6   5   4     2.115711747381   104.72017307    39.84813065
 H      6   5   4     2.097161996821   105.80874259   282.26179099
 H      6   5   4     2.089766068862   112.28731880   159.59478098

---------------------
BASIS SET INFORMATION
---------------------
There are 2 groups of distinct atoms

 Group   1 Type C   : 7s4p1d contracted to 3s2p1d pattern {511/31/1}
 Group   2 Type H   : 4s contracted to 2s pattern {31}

Atom   0C    basis set group =>   1
Atom   1C    basis set group =>   1
Atom   2C    basis set group =>   1
Atom   3C    basis set group =>   1
Atom   4C    basis set group =>   1
Atom   5C    basis set group =>   1
Atom   6H    basis set group =>   2
Atom   7H    basis set group =>   2
Atom   8H    basis set group =>   2
Atom   9H    basis set group =>   2
Atom  10H    basis set group =>   2
Atom  11H    basis set group =>   2
Atom  12H    basis set group =>   2
Atom  13H    basis set group =>   2
Atom  14H    basis set group =>   2
Atom  15H    basis set group =>   2
Atom  16H    basis set group =>   2
Atom  17H    basis set group =>   2
Atom  18H    basis set group =>   2
Atom  19H    basis set group =>   2
---------------------------------
AUXILIARY/J BASIS SET INFORMATION
---------------------------------
There are 2 groups of distinct atoms

 Group   1 Type C   : 12s5p4d2f1g contracted to 6s4p3d1f1g pattern {711111/2111/211/2/1}
 Group   2 Type H   : 5s2p1d contracted to 3s1p1d pattern {311/2/1}

Atom   0C    basis set group =>   1
Atom   1C    basis set group =>   1
Atom   2C    basis set group =>   1
Atom   3C    basis set group =>   1
Atom   4C    basis set group =>   1
Atom   5C    basis set group =>   1
Atom   6H    basis set group =>   2
Atom   7H    basis set group =>   2
Atom   8H    basis set group =>   2
Atom   9H    basis set group =>   2
Atom  10H    basis set group =>   2
Atom  11H    basis set group =>   2
Atom  12H    basis set group =>   2
Atom  13H    basis set group =>   2
Atom  14H    basis set group =>   2
Atom  15H    basis set group =>   2
Atom  16H    basis set group =>   2
Atom  17H    basis set group =>   2
Atom  18H    basis set group =>   2
Atom  19H    basis set group =>   2
------------------------------------------------------------------------------
                           ORCA GTO INTEGRAL CALCULATION
------------------------------------------------------------------------------

                         BASIS SET STATISTICS AND STARTUP INFO

 # of primitive gaussian shells          ...  128
 # of primitive gaussian functions       ...  200
 # of contracted shells                  ...   64
 # of contracted basis functions         ...  112
 Highest angular momentum                ...    2
 Maximum contraction depth               ...    5
 Integral package used                   ... LIBINT
 Integral threshhold            Thresh   ...  1.000e-12
 Primitive cut-off              TCut     ...  1.000e-14


------------------------------ INTEGRAL EVALUATION ----------------------------


 * One electron integrals 
 Pre-screening matrix                    ... done
 Shell pair data                         ... done (   0.001 sec)

-------------------------------------------------------------------------------
                                 ORCA SCF
-------------------------------------------------------------------------------

------------
SCF SETTINGS
------------
Hamiltonian:
 Density Functional     Method          .... DFT(GTOs)
 Exchange Functional    Exchange        .... B88
   X-Alpha parameter    XAlpha          ....  0.666667
   Becke's b parameter  XBeta           ....  0.004200
 Correlation Functional Correlation     .... LYP
 LDA part of GGA corr.  LDAOpt          .... VWN-5
 Gradients option       PostSCFGGA      .... off
 Hybrid DFT is turned on
   Fraction HF Exchange ScalHFX         ....  0.200000
   Scaling of DF-GGA-X  ScalDFX         ....  0.720000
   Scaling of DF-GGA-C  ScalDFC         ....  0.810000
   Scaling of DF-LDA-C  ScalLDAC        ....  1.000000
   Perturbative correction              ....  0.000000
   Density functional embedding theory  .... OFF
   NL short-range parameter             ....  4.800000


General Settings:
 Integral files         IntName         .... orca7
 Hartree-Fock type      HFTyp           .... UHF
 Total Charge           Charge          ....    0
 Multiplicity           Mult            ....    1
 Number of Electrons    NEL             ....   50
 Basis Dimension        Dim             ....  112
 Nuclear Repulsion      ENuc            ....    251.5275915674 Eh

Convergence Acceleration:
 DIIS                   CNVDIIS         .... on
   Start iteration      DIISMaxIt       ....    12
   Startup error        DIISStart       ....  0.200000
   # of expansion vecs  DIISMaxEq       ....     5
   Bias factor          DIISBfac        ....   1.050
   Max. coefficient     DIISMaxC        ....  10.000
 Newton-Raphson         CNVNR           .... off
 SOSCF                  CNVSOSCF        .... off
 Level Shifting         CNVShift        .... on
   Level shift para.    LevelShift      ....    0.2500
   Turn off err/grad.   ShiftErr        ....    0.0010
 Zerner damping         CNVZerner       .... off
 Static damping         CNVDamp         .... on
   Fraction old density DampFac         ....    0.7000
   Max. Damping (<1)    DampMax         ....    0.9800
   Min. Damping (>=0)   DampMin         ....    0.0000
   Turn off err/grad.   DampErr         ....    0.1000
 Fernandez-Rico         CNVRico         .... off

SCF Procedure:
 Maximum # iterations   MaxIter         ....   500
 SCF integral mode      SCFMode         .... Direct
   Integral package                     .... LIBINT
 Reset frequency        DirectResetFreq ....    20
 Integral Threshold     Thresh          ....  1.000e-12 Eh
 Primitive CutOff       TCut            ....  1.000e-14 Eh

Convergence Tolerance:
 Convergence Check Mode ConvCheckMode   .... Total+1el-Energy
 Convergence forced     ConvForced      .... 0
 Energy Change          TolE            ....  1.000e-09 Eh
 1-El. energy change                    ....  1.000e-06 Eh
 DIIS Error             TolErr          ....  1.000e-08


Diagonalization of the overlap matrix:
Smallest eigenvalue                        ... 1.536e-03
Time for diagonalization                   ...    0.002 sec
Threshold for overlap eigenvalues          ... 1.000e-08
Number of eigenvalues below threshold      ... 0
Time for construction of square roots      ...    2.415 sec
Total time needed                          ...    2.417 sec

-------------------
DFT GRID GENERATION
-------------------

General Integration Accuracy     IntAcc      ...  4.340
Radial Grid Type                 RadialGrid  ... Gauss-Chebyshev
Angular Grid (max. acc.)         AngularGrid ... Lebedev-110
Angular grid pruning method      GridPruning ... 3 (G Style)
Weight generation scheme         WeightScheme... Becke
Basis function cutoff            BFCut       ...    1.0000e-12
Integration weight cutoff        WCut        ...    1.0000e-14
Grids for H and He will be reduced by one unit

# of grid points (after initial pruning)     ...  21052 (   0.0 sec)
# of grid points (after weights+screening)   ...  19280 (   0.1 sec)
nearest neighbour list constructed           ...    0.0 sec
Grid point re-assignment to atoms done       ...    0.0 sec
Grid point division into batches done        ...    0.0 sec
Reduced shell lists constructed in    0.1 sec

Total number of grid points                  ...    19280
Total number of batches                      ...      312
Average number of points per batch           ...       61
Average number of grid points per atom       ...      964
Average number of shells per batch           ...    50.93 (79.58%)
Average number of basis functions per batch  ...    88.06 (78.63%)
Average number of large shells per batch     ...    41.87 (82.20%)
Average number of large basis fcns per batch ...    72.29 (82.09%)
Maximum spatial batch extension              ...  20.22, 20.76, 20.11 au
Average spatial batch extension              ...   3.47,  3.79,  3.79 au

Time for grid setup =    4.204 sec

------------------------------
INITIAL GUESS: MODEL POTENTIAL
------------------------------
Loading Hartree-Fock densities                     ... done
Calculating cut-offs                               ... done
Setting up the integral package                    ... done
Initializing the effective Hamiltonian             ... done
Starting the Coulomb interaction                   ... done (   0.1 sec)
Reading the grid                                   ... done
Mapping shells                                     ... done
Starting the XC term evaluation                    ... done (   0.2 sec)
  promolecular density results
     # of electrons  =     50.002705395
     EX              =    -35.018406584
     EC              =     -1.578036507
     EX+EC           =    -36.596443091
Transforming the Hamiltonian                       ... done (   0.0 sec)
Diagonalizing the Hamiltonian                      ... done (   0.0 sec)
Back transforming the eigenvectors                 ... done (   0.0 sec)
Now organizing SCF variables                       ... done
                      ------------------
                      INITIAL GUESS DONE (   4.6 sec)
                      ------------------
--------------
SCF ITERATIONS
--------------
ITER       Energy         Delta-E        Max-DP      RMS-DP      [F,P]     Damp
               ***  Starting incremental Fock matrix formation  ***
  0   -236.4141945971   0.000000000000 0.04215198  0.00184564  0.1748129 0.7000
  1   -236.5320688181  -0.117874221016 0.02601647  0.00130541  0.0907739 0.7000
                               ***Turning on DIIS***
  2   -236.5786889706  -0.046620152508 0.03613303  0.00212596  0.0336481 0.0000
  3   -236.6414118863  -0.062722915659 0.01724199  0.00087692  0.0504002 0.0000
  4   -236.6624752460  -0.021063359687 0.00358943  0.00026595  0.0115994 0.0000
  5   -236.6635737423  -0.001098496335 0.00134496  0.00009408  0.0021205 0.0000
  6   -236.6636379297  -0.000064187404 0.00063168  0.00004820  0.0007972 0.0000
  7   -236.6636434710  -0.000005541331 0.00019953  0.00000534  0.0003647 0.0000
  8   -236.6636439229  -0.000000451835 0.00003897  0.00000142  0.0000618 0.0000
  9   -236.6636439388  -0.000000015945 0.00001525  0.00000046  0.0000212 0.0000
 10   -236.6636439405  -0.000000001696 0.00000478  0.00000016  0.0000078 0.0000
 11   -236.6636439408  -0.000000000262 0.00000150  0.00000007  0.0000036 0.0000
 12   -236.6636439408  -0.000000000017 0.00000029  0.00000001  0.0000005 0.0000
 13   -236.6636439408  -0.000000000008 0.00000018  0.00000000  0.0000003 0.0000
                 **** Energy Check signals convergence ****

 Fermi smearing  (ALPHA): E(HOMO(Eh)) = -0.284537 MUE = -0.112026 gap=   9.389 eV
 Fermi smearing   (BETA): E(HOMO(Eh)) = -0.284537 MUE = -0.112026 gap=   9.389 eV

N_FOD(alpha) =  0.000000
 N_FOD(beta) =  0.000000
       N_FOD =  0.000000

               *****************************************************
               *                     SUCCESS                       *
               *           SCF CONVERGED AFTER  14 CYCLES          *
               *****************************************************

Setting up the final grid:

General Integration Accuracy     IntAcc      ...  4.670
Radial Grid Type                 RadialGrid  ... Gauss-Chebyshev
Angular Grid (max. acc.)         AngularGrid ... Lebedev-302
Angular grid pruning method      GridPruning ... 3 (G Style)
Weight generation scheme         WeightScheme... Becke
Basis function cutoff            BFCut       ...    1.0000e-12
Integration weight cutoff        WCut        ...    1.0000e-14
Grids for H and He will be reduced by one unit

# of grid points (after initial pruning)     ...  84788 (   0.0 sec)
# of grid points (after weights+screening)   ...  76471 (   0.2 sec)
nearest neighbour list constructed           ...    0.0 sec
Grid point re-assignment to atoms done       ...    0.0 sec
Grid point division into batches done        ...    0.2 sec
Reduced shell lists constructed in    0.6 sec

Total number of grid points                  ...    76471
Total number of batches                      ...     1206
Average number of points per batch           ...       63
Average number of grid points per atom       ...     3824
Average number of shells per batch           ...    47.61 (74.39%)
Average number of basis functions per batch  ...    81.98 (73.19%)
Average number of large shells per batch     ...    38.56 (80.99%)
Average number of large basis fcns per batch ...    66.20 (80.75%)
Maximum spatial batch extension              ...  19.18, 17.43, 19.69 au
Average spatial batch extension              ...   2.32,  2.40,  2.43 au

Final grid set up in    2.6 sec
Final integration                            ... done (  12.4 sec)
Change in XC energy                          ...     0.000484214
Integrated number of electrons               ...    49.999894944
Previous integrated no of electrons          ...    50.004532071

----------------
TOTAL SCF ENERGY
----------------

Total Energy       :         -236.66315973 Eh           -6439.93198 eV

Components:
Nuclear Repulsion  :          251.52759157 Eh            6844.41373 eV
Electronic Energy  :         -488.19075129 Eh          -13284.34571 eV
One Electron Energy:         -814.83514342 Eh          -22172.79150 eV
Two Electron Energy:          326.64439213 Eh            8888.44579 eV

Virial components:
Potential Energy   :         -470.97307849 Eh          -12815.82901 eV
Kinetic Energy     :          234.30991877 Eh            6375.89703 eV
Virial Ratio       :            2.01004328


DFT components:
N(Alpha)           :       24.999947472127 electrons
N(Beta)            :       24.999947472127 electrons
N(Total)           :       49.999894944254 electrons
E(X)               :      -28.525278613674 Eh       
E(C)               :       -1.872525880897 Eh       
E(XC)              :      -30.397804494571 Eh       
DFET-embed. en.    :        0.000000000000 Eh       

---------------
SCF CONVERGENCE
---------------

  Last Energy change         ...   -2.4471e-11  Tolerance :   1.0000e-09
  Last MAX-Density change    ...    4.5172e-08  Tolerance :   1.0000e-08
  Last RMS-Density change    ...    1.1719e-09  Tolerance :   1.0000e-09
  Last DIIS Error            ...    8.5182e-08  Tolerance :   1.0000e-08

             **** THE GBW FILE WAS UPDATED (orca7.gbw) ****
             **** DENSITY FILE WAS UPDATED (orca7.scfp) ****
             **** ENERGY FILE WAS UPDATED (orca7.en.tmp) ****
             **** THE GBW FILE WAS UPDATED (orca7.gbw) ****
             **** DENSITY FILE WAS UPDATED (orca7.scfp) ****
----------------
ORBITAL ENERGIES
----------------
                 SPIN UP ORBITALS
  NO   OCC          E(Eh)            E(eV) 
   0   1.0000     -10.165943      -276.6294 
   1   1.0000     -10.165792      -276.6253 
   2   1.0000     -10.165367      -276.6137 
   3   1.0000     -10.163549      -276.5642 
   4   1.0000     -10.162144      -276.5260 
   5   1.0000     -10.161502      -276.5085 
   6   1.0000      -0.807529       -21.9740 
   7   1.0000      -0.761332       -20.7169 
   8   1.0000      -0.694292       -18.8926 
   9   1.0000      -0.617739       -16.8095 
  10   1.0000      -0.578310       -15.7366 
  11   1.0000      -0.557059       -15.1583 
  12   1.0000      -0.475921       -12.9505 
  13   1.0000      -0.449852       -12.2411 
  14   1.0000      -0.442221       -12.0334 
  15   1.0000      -0.414367       -11.2755 
  16   1.0000      -0.410604       -11.1731 
  17   1.0000      -0.370368       -10.0782 
  18   1.0000      -0.366695        -9.9783 
  19   1.0000      -0.351566        -9.5666 
  20   1.0000      -0.340335        -9.2610 
  21   1.0000      -0.329532        -8.9670 
  22   1.0000      -0.322271        -8.7694 
  23   1.0000      -0.312730        -8.5098 
  24   1.0000      -0.284537        -7.7427 
  25   0.0000       0.060485         1.6459 
  26   0.0000       0.071825         1.9545 
  27   0.0000       0.076184         2.0731 
  28   0.0000       0.081913         2.2290 
  29   0.0000       0.103485         2.8160 
  30   0.0000       0.113024         3.0755 
  31   0.0000       0.121031         3.2934 
  32   0.0000       0.129242         3.5169 
  33   0.0000       0.141743         3.8570 
  34   0.0000       0.155448         4.2299 
  35   0.0000       0.161948         4.4068 
  36   0.0000       0.173942         4.7332 
  37   0.0000       0.182257         4.9595 
  38   0.0000       0.208726         5.6797 
  39   0.0000       0.218049         5.9334 
  40   0.0000       0.247983         6.7480 
  41   0.0000       0.269950         7.3457 
  42   0.0000       0.287346         7.8191 
  43   0.0000       0.296387         8.0651 
  44   0.0000       0.419469        11.4143 
  45   0.0000       0.426608        11.6086 
  46   0.0000       0.438901        11.9431 
  47   0.0000       0.467097        12.7103 
  48   0.0000       0.471490        12.8299 
  49   0.0000       0.499887        13.6026 
  50   0.0000       0.508491        13.8367 
  51   0.0000       0.526379        14.3235 
  52   0.0000       0.565291        15.3823 
  53   0.0000       0.615363        16.7449 
  54   0.0000       0.626160        17.0387 
  55   0.0000       0.641877        17.4664 
  56   0.0000       0.654141        17.8001 
  57   0.0000       0.660115        17.9626 
  58   0.0000       0.666568        18.1382 
  59   0.0000       0.681567        18.5464 
  60   0.0000       0.687402        18.7052 
  61   0.0000       0.696199        18.9445 
  62   0.0000       0.703955        19.1556 
  63   0.0000       0.708758        19.2863 
  64   0.0000       0.712882        19.3985 
  65   0.0000       0.717196        19.5159 
  66   0.0000       0.718360        19.5476 
  67   0.0000       0.722838        19.6694 
  68   0.0000       0.730135        19.8680 
  69   0.0000       0.733500        19.9596 
  70   0.0000       0.742643        20.2084 
  71   0.0000       0.749274        20.3888 
  72   0.0000       0.753946        20.5159 
  73   0.0000       0.763805        20.7842 
  74   0.0000       0.780638        21.2422 
  75   0.0000       0.846477        23.0338 
  76   0.0000       0.914033        24.8721 
  77   0.0000       0.946991        25.7689 
  78   0.0000       0.969378        26.3781 
  79   0.0000       1.009349        27.4658 
  80   0.0000       1.129504        30.7354 
  81   0.0000       1.218609        33.1600 
  82   0.0000       1.372571        37.3496 
  83   0.0000       1.426667        38.8216 
  84   0.0000       1.602212        43.5984 
  85   0.0000       1.676332        45.6153 
  86   0.0000       1.743952        47.4554 
  87   0.0000       1.831976        49.8506 
  88   0.0000       1.840244        50.0756 
  89   0.0000       1.863331        50.7038 
  90   0.0000       1.877652        51.0935 
  91   0.0000       1.931790        52.5667 
  92   0.0000       1.962530        53.4032 
  93   0.0000       1.968963        53.5782 
  94   0.0000       2.024722        55.0955 
  95   0.0000       2.050054        55.7848 
  96   0.0000       2.059391        56.0389 
  97   0.0000       2.085221        56.7418 
  98   0.0000       2.135081        58.0985 
  99   0.0000       2.152595        58.5751 
 100   0.0000       2.173450        59.1426 
 101   0.0000       2.265644        61.6513 
 102   0.0000       2.281329        62.0781 
 103   0.0000       2.298559        62.5470 
 104   0.0000       2.336717        63.5853 
 105   0.0000       2.428843        66.0922 
 106   0.0000       2.455713        66.8234 
 107   0.0000       2.512038        68.3560 
 108   0.0000       2.571740        69.9806 
 109   0.0000       2.673207        72.7417 
 110   0.0000       2.700964        73.4970 
 111   0.0000       2.783087        75.7316 

                 SPIN DOWN ORBITALS
  NO   OCC          E(Eh)            E(eV) 
   0   1.0000     -10.165943      -276.6294 
   1   1.0000     -10.165792      -276.6253 
   2   1.0000     -10.165367      -276.6137 
   3   1.0000     -10.163549      -276.5642 
   4   1.0000     -10.162144      -276.5260 
   5   1.0000     -10.161502      -276.5085 
   6   1.0000      -0.807529       -21.9740 
   7   1.0000      -0.761332       -20.7169 
   8   1.0000      -0.694292       -18.8926 
   9   1.0000      -0.617739       -16.8095 
  10   1.0000      -0.578310       -15.7366 
  11   1.0000      -0.557059       -15.1583 
  12   1.0000      -0.475921       -12.9505 
  13   1.0000      -0.449852       -12.2411 
  14   1.0000      -0.442221       -12.0334 
  15   1.0000      -0.414367       -11.2755 
  16   1.0000      -0.410604       -11.1731 
  17   1.0000      -0.370368       -10.0782 
  18   1.0000      -0.366695        -9.9783 
  19   1.0000      -0.351566        -9.5666 
  20   1.0000      -0.340335        -9.2610 
  21   1.0000      -0.329532        -8.9670 
  22   1.0000      -0.322271        -8.7694 
  23   1.0000      -0.312730        -8.5098 
  24   1.0000      -0.284537        -7.7427 
  25   0.0000       0.060485         1.6459 
  26   0.0000       0.071825         1.9545 
  27   0.0000       0.076184         2.0731 
  28   0.0000       0.081913         2.2290 
  29   0.0000       0.103485         2.8160 
  30   0.0000       0.113024         3.0755 
  31   0.0000       0.121031         3.2934 
  32   0.0000       0.129242         3.5169 
  33   0.0000       0.141743         3.8570 
  34   0.0000       0.155448         4.2299 
  35   0.0000       0.161948         4.4068 
  36   0.0000       0.173942         4.7332 
  37   0.0000       0.182257         4.9595 
  38   0.0000       0.208726         5.6797 
  39   0.0000       0.218049         5.9334 
  40   0.0000       0.247983         6.7480 
  41   0.0000       0.269950         7.3457 
  42   0.0000       0.287346         7.8191 
  43   0.0000       0.296387         8.0651 
  44   0.0000       0.419469        11.4143 
  45   0.0000       0.426608        11.6086 
  46   0.0000       0.438901        11.9431 
  47   0.0000       0.467097        12.7103 
  48   0.0000       0.471490        12.8299 
  49   0.0000       0.499887        13.6026 
  50   0.0000       0.508491        13.8367 
  51   0.0000       0.526379        14.3235 
  52   0.0000       0.565291        15.3823 
  53   0.0000       0.615363        16.7449 
  54   0.0000       0.626160        17.0387 
  55   0.0000       0.641877        17.4664 
  56   0.0000       0.654141        17.8001 
  57   0.0000       0.660115        17.9626 
  58   0.0000       0.666568        18.1382 
  59   0.0000       0.681567        18.5464 
  60   0.0000       0.687402        18.7052 
  61   0.0000       0.696199        18.9445 
  62   0.0000       0.703955        19.1556 
  63   0.0000       0.708758        19.2863 
  64   0.0000       0.712882        19.3985 
  65   0.0000       0.717196        19.5159 
  66   0.0000       0.718360        19.5476 
  67   0.0000       0.722838        19.6694 
  68   0.0000       0.730135        19.8680 
  69   0.0000       0.733500        19.9596 
  70   0.0000       0.742643        20.2084 
  71   0.0000       0.749274        20.3888 
  72   0.0000       0.753946        20.5159 
  73   0.0000       0.763805        20.7842 
  74   0.0000       0.780638        21.2422 
  75   0.0000       0.846477        23.0338 
  76   0.0000       0.914033        24.8721 
  77   0.0000       0.946991        25.7689 
  78   0.0000       0.969378        26.3781 
  79   0.0000       1.009349        27.4658 
  80   0.0000       1.129504        30.7354 
  81   0.0000       1.218609        33.1600 
  82   0.0000       1.372571        37.3496 
  83   0.0000       1.426667        38.8216 
  84   0.0000       1.602212        43.5984 
  85   0.0000       1.676332        45.6153 
  86   0.0000       1.743952        47.4554 
  87   0.0000       1.831976        49.8506 
  88   0.0000       1.840244        50.0756 
  89   0.0000       1.863331        50.7038 
  90   0.0000       1.877652        51.0935 
  91   0.0000       1.931790        52.5667 
  92   0.0000       1.962530        53.4032 
  93   0.0000       1.968963        53.5782 
  94   0.0000       2.024722        55.0955 
  95   0.0000       2.050054        55.7848 
  96   0.0000       2.059391        56.0389 
  97   0.0000       2.085221        56.7418 
  98   0.0000       2.135081        58.0985 
  99   0.0000       2.152595        58.5751 
 100   0.0000       2.173450        59.1426 
 101   0.0000       2.265644        61.6513 
 102   0.0000       2.281329        62.0781 
 103   0.0000       2.298559        62.5470 
 104   0.0000       2.336717        63.5853 
 105   0.0000       2.428843        66.0922 
 106   0.0000       2.455713        66.8234 
 107   0.0000       2.512038        68.3560 
 108   0.0000       2.571740        69.9806 
 109   0.0000       2.673207        72.7417 
 110   0.0000       2.700964        73.4970 
 111   0.0000       2.783087        75.7316 

                    ********************************
                    * MULLIKEN POPULATION ANALYSIS *
                    ********************************

------------------------------------------
FOD BASED MULLIKEN REDUCED ORBITAL CHARGES
------------------------------------------
  0 C s       :    -0.000000  s :    -0.000000
      pz      :     0.000000  p :     0.000000
      px      :     0.000000
      py      :     0.000000
      dz2     :     0.000000  d :     0.000000
      dxz     :     0.000000
      dyz     :     0.000000
      dx2y2   :     0.000000
      dxy     :     0.000000
  1 C s       :    -0.000000  s :    -0.000000
      pz      :     0.000000  p :     0.000000
      px      :     0.000000
      py      :     0.000000
      dz2     :     0.000000  d :     0.000000
      dxz     :     0.000000
      dyz     :     0.000000
      dx2y2   :     0.000000
      dxy     :     0.000000
  2 C s       :    -0.000000  s :    -0.000000
      pz      :     0.000000  p :     0.000000
      px      :     0.000000
      py      :     0.000000
      dz2     :     0.000000  d :     0.000000
      dxz     :     0.000000
      dyz     :     0.000000
      dx2y2   :     0.000000
      dxy     :     0.000000
  3 C s       :    -0.000000  s :    -0.000000
      pz      :     0.000000  p :     0.000000
      px      :     0.000000
      py      :     0.000000
      dz2     :     0.000000  d :     0.000000
      dxz     :     0.000000
      dyz     :     0.000000
      dx2y2   :     0.000000
      dxy     :     0.000000
  4 C s       :    -0.000000  s :    -0.000000
      pz      :     0.000000  p :     0.000000
      px      :     0.000000
      py      :     0.000000
      dz2     :     0.000000  d :     0.000000
      dxz     :     0.000000
      dyz     :     0.000000
      dx2y2   :     0.000000
      dxy     :     0.000000
  5 C s       :    -0.000000  s :    -0.000000
      pz      :     0.000000  p :     0.000000
      px      :     0.000000
      py      :     0.000000
      dz2     :     0.000000  d :     0.000000
      dxz     :     0.000000
      dyz     :     0.000000
      dx2y2   :     0.000000
      dxy     :     0.000000
  6 H s       :     0.000000  s :     0.000000
  7 H s       :     0.000000  s :     0.000000
  8 H s       :     0.000000  s :     0.000000
  9 H s       :     0.000000  s :     0.000000
 10 H s       :     0.000000  s :     0.000000
 11 H s       :     0.000000  s :     0.000000
 12 H s       :     0.000000  s :     0.000000
 13 H s       :     0.000000  s :     0.000000
 14 H s       :     0.000000  s :     0.000000
 15 H s       :     0.000000  s :     0.000000
 16 H s       :     0.000000  s :     0.000000
 17 H s       :     0.000000  s :     0.000000
 18 H s       :     0.000000  s :     0.000000
 19 H s       :     0.000000  s :     0.000000


                     *******************************
                     * LOEWDIN POPULATION ANALYSIS *
                     *******************************

-------------------------------------------
LOEWDIN ATOMIC CHARGES AND SPIN POPULATIONS
-------------------------------------------
   0 C :   -0.320821    0.000000
   1 C :   -0.225874    0.000000
   2 C :   -0.211276    0.000000
   3 C :   -0.211163    0.000000
   4 C :   -0.223912    0.000000
   5 C :   -0.314033    0.000000
   6 H :    0.112654    0.000000
   7 H :    0.109544    0.000000
   8 H :    0.112830    0.000000
   9 H :    0.106349    0.000000
  10 H :    0.107951    0.000000
  11 H :    0.108082    0.000000
  12 H :    0.103632    0.000000
  13 H :    0.104975    0.000000
  14 H :    0.103089    0.000000
  15 H :    0.106041    0.000000
  16 H :    0.103817    0.000000
  17 H :    0.109311    0.000000
  18 H :    0.112812    0.000000
  19 H :    0.105994    0.000000

----------------------------------------------------
LOEWDIN REDUCED ORBITAL CHARGES AND SPIN POPULATIONS
----------------------------------------------------
CHARGE
  0 C s       :     2.950466  s :     2.950466
      pz      :     1.102155  p :     3.295370
      px      :     1.089885
      py      :     1.103330
      dz2     :     0.017864  d :     0.074985
      dxz     :     0.015668
      dyz     :     0.010257
      dx2y2   :     0.008371
      dxy     :     0.022825
  1 C s       :     2.904724  s :     2.904724
      pz      :     1.081848  p :     3.225567
      px      :     1.051599
      py      :     1.092120
      dz2     :     0.023506  d :     0.095583
      dxz     :     0.021366
      dyz     :     0.009787
      dx2y2   :     0.026003
      dxy     :     0.014921
  2 C s       :     2.909845  s :     2.909845
      pz      :     1.072926  p :     3.207158
      px      :     1.053731
      py      :     1.080501
      dz2     :     0.014219  d :     0.094273
      dxz     :     0.025868
      dyz     :     0.017772
      dx2y2   :     0.020412
      dxy     :     0.016003
  3 C s       :     2.906470  s :     2.906470
      pz      :     1.078136  p :     3.210717
      px      :     1.062689
      py      :     1.069891
      dz2     :     0.024441  d :     0.093977
      dxz     :     0.023151
      dyz     :     0.006380
      dx2y2   :     0.015650
      dxy     :     0.024355
  4 C s       :     2.904429  s :     2.904429
      pz      :     1.089675  p :     3.225708
      px      :     1.063474
      py      :     1.072559
      dz2     :     0.014294  d :     0.093775
      dxz     :     0.011810
      dyz     :     0.027609
      dx2y2   :     0.016911
      dxy     :     0.023152
  5 C s       :     2.959603  s :     2.959603
      pz      :     1.099772  p :     3.279607
      px      :     1.076482
      py      :     1.103354
      dz2     :     0.007778  d :     0.074823
      dxz     :     0.016207
      dyz     :     0.021864
      dx2y2   :     0.009829
      dxy     :     0.019145
  6 H s       :     0.887346  s :     0.887346
  7 H s       :     0.890456  s :     0.890456
  8 H s       :     0.887170  s :     0.887170
  9 H s       :     0.893651  s :     0.893651
 10 H s       :     0.892049  s :     0.892049
 11 H s       :     0.891918  s :     0.891918
 12 H s       :     0.896368  s :     0.896368
 13 H s       :     0.895025  s :     0.895025
 14 H s       :     0.896911  s :     0.896911
 15 H s       :     0.893959  s :     0.893959
 16 H s       :     0.896183  s :     0.896183
 17 H s       :     0.890689  s :     0.890689
 18 H s       :     0.887188  s :     0.887188
 19 H s       :     0.894006  s :     0.894006

SPIN
  0 C s       :     0.000000  s :     0.000000
      pz      :     0.000000  p :     0.000000
      px      :     0.000000
      py      :     0.000000
      dz2     :     0.000000  d :     0.000000
      dxz     :     0.000000
      dyz     :     0.000000
      dx2y2   :     0.000000
      dxy     :     0.000000
  1 C s       :     0.000000  s :     0.000000
      pz      :     0.000000  p :     0.000000
      px      :     0.000000
      py      :     0.000000
      dz2     :     0.000000  d :     0.000000
      dxz     :     0.000000
      dyz     :     0.000000
      dx2y2   :     0.000000
      dxy     :     0.000000
  2 C s       :     0.000000  s :     0.000000
      pz      :     0.000000  p :     0.000000
      px      :     0.000000
      py      :     0.000000
      dz2     :     0.000000  d :     0.000000
      dxz     :     0.000000
      dyz     :     0.000000
      dx2y2   :     0.000000
      dxy     :     0.000000
  3 C s       :     0.000000  s :     0.000000
      pz      :     0.000000  p :     0.000000
      px      :     0.000000
      py      :     0.000000
      dz2     :     0.000000  d :     0.000000
      dxz     :     0.000000
      dyz     :     0.000000
      dx2y2   :     0.000000
      dxy     :     0.000000
  4 C s       :     0.000000  s :     0.000000
      pz      :     0.000000  p :     0.000000
      px      :     0.000000
      py      :     0.000000
      dz2     :     0.000000  d :     0.000000
      dxz     :     0.000000
      dyz     :     0.000000
      dx2y2   :     0.000000
      dxy     :     0.000000
  5 C s       :     0.000000  s :     0.000000
      pz      :     0.000000  p :     0.000000
      px      :     0.000000
      py      :     0.000000
      dz2     :     0.000000  d :     0.000000
      dxz     :     0.000000
      dyz     :     0.000000
      dx2y2   :     0.000000
      dxy     :     0.000000
  6 H s       :     0.000000  s :     0.000000
  7 H s       :     0.000000  s :     0.000000
  8 H s       :     0.000000  s :     0.000000
  9 H s       :     0.000000  s :     0.000000
 10 H s       :     0.000000  s :     0.000000
 11 H s       :     0.000000  s :     0.000000
 12 H s       :     0.000000  s :     0.000000
 13 H s       :     0.000000  s :     0.000000
 14 H s       :     0.000000  s :     0.000000
 15 H s       :     0.000000  s :     0.000000
 16 H s       :     0.000000  s :     0.000000
 17 H s       :     0.000000  s :     0.000000
 18 H s       :     0.000000  s :     0.000000
 19 H s       :     0.000000  s :     0.000000


                      *****************************
                      * MAYER POPULATION ANALYSIS *
                      *****************************

  NA   - Mulliken gross atomic population
  ZA   - Total nuclear charge
  QA   - Mulliken gross atomic charge
  VA   - Mayer's total valence
  BVA  - Mayer's bonded valence
  FA   - Mayer's free valence

  ATOM       NA         ZA         QA         VA         BVA        FA
  0 C      6.2347     6.0000    -0.2347     3.9985     3.9985     0.0000
  1 C      6.1891     6.0000    -0.1891     4.1657     4.1657     0.0000
  2 C      6.1618     6.0000    -0.1618     4.1241     4.1241     0.0000
  3 C      6.1379     6.0000    -0.1379     4.0551     4.0551     0.0000
  4 C      6.1484     6.0000    -0.1484     4.1151     4.1151    -0.0000
  5 C      6.2735     6.0000    -0.2735     4.0387     4.0387     0.0000
  6 H      0.9076     1.0000     0.0924     0.9547     0.9547     0.0000
  7 H      0.9089     1.0000     0.0911     0.9629     0.9629     0.0000
  8 H      0.9108     1.0000     0.0892     0.9546     0.9546     0.0000
  9 H      0.9236     1.0000     0.0764     0.9497     0.9497     0.0000
 10 H      0.9226     1.0000     0.0774     0.9494     0.9494     0.0000
 11 H      0.9191     1.0000     0.0809     0.9562     0.9562     0.0000
 12 H      0.9317     1.0000     0.0683     0.9513     0.9513     0.0000
 13 H      0.9281     1.0000     0.0719     0.9571     0.9571     0.0000
 14 H      0.9337     1.0000     0.0663     0.9573     0.9573     0.0000
 15 H      0.9275     1.0000     0.0725     0.9455     0.9455     0.0000
 16 H      0.9258     1.0000     0.0742     0.9560     0.9560     0.0000
 17 H      0.9019     1.0000     0.0981     0.9549     0.9549     0.0000
 18 H      0.9036     1.0000     0.0964     0.9517     0.9517     0.0000
 19 H      0.9096     1.0000     0.0904     0.9516     0.9516     0.0000

  Mayer bond orders larger than 0.100000
B(  0-C ,  1-C ) :   1.1248 B(  0-C ,  6-H ) :   0.9611 B(  0-C ,  7-H ) :   0.9613 
B(  0-C ,  8-H ) :   0.9585 B(  1-C ,  2-C ) :   1.1424 B(  1-C ,  9-H ) :   0.9401 
B(  1-C , 10-H ) :   0.9393 B(  2-C ,  3-C ) :   1.0838 B(  2-C , 11-H ) :   0.9255 
B(  2-C , 12-H ) :   0.9325 B(  3-C ,  4-C ) :   1.0800 B(  3-C , 13-H ) :   0.9383 
B(  3-C , 14-H ) :   0.9315 B(  4-C ,  5-C ) :   1.1319 B(  4-C , 15-H ) :   0.9379 
B(  4-C , 16-H ) :   0.9391 B(  5-C , 17-H ) :   0.9607 B(  5-C , 18-H ) :   0.9603 
B(  5-C , 19-H ) :   0.9569 

-------
TIMINGS
-------

Total SCF time: 0 days 0 hours 6 min 20 sec 

Total time                  ....     380.193 sec
Sum of individual times     ....     306.066 sec  ( 80.5%)

Fock matrix formation       ....     258.561 sec  ( 68.0%)
  XC integration            ....     125.231 sec  ( 48.4% of F)
    Basis function eval.    ....       1.593 sec  (  1.3% of XC)
    Density eval.           ....       1.291 sec  (  1.0% of XC)
    XC-Functional eval.     ....       0.366 sec  (  0.3% of XC)
    XC-Potential eval.      ....       1.791 sec  (  1.4% of XC)
Diagonalization             ....       0.103 sec  (  0.0%)
Density matrix formation    ....      21.892 sec  (  5.8%)
Population analysis         ....       3.285 sec  (  0.9%)
Initial guess               ....       0.361 sec  (  0.1%)
Orbital Transformation      ....       0.000 sec  (  0.0%)
Orbital Orthonormalization  ....       0.000 sec  (  0.0%)
DIIS solution               ....      15.029 sec  (  4.0%)
Grid generation             ....       6.834 sec  (  1.8%)


-------------------------------------------------------------------------------
                          DFT DISPERSION CORRECTION                            
                                                                               
                              DFTD3 V3.1  Rev 1                                
                          USING Becke-Johnson damping                          
-------------------------------------------------------------------------------
The B3LYP functional is recognized
Active option DFTDOPT                   ...         4   

molecular C6(AA) [au] = 2517.348061 


            DFT-D V3
 parameters
 s6 scaling factor         :     1.0000 
 a1 scaling factor         :     0.3981 
 s8 scaling factor         :     1.9889 
 a2 scaling factor         :     4.4211 
 ad hoc parameters k1-k3   :    16.0000     1.3333    -4.0000 

 Edisp/kcal,au: -15.905467436178  -0.025346973069 
 E6   /kcal   :  -7.995199701 
 E8   /kcal   :  -7.910267735 
 % E8         :  49.733010156 

-------------------------   ----------------
Dispersion correction           -0.025346973
-------------------------   ----------------


-------------------------   --------------------
FINAL SINGLE POINT ENERGY      -236.688506699806
-------------------------   --------------------

------------------------------------------------------------------------------
                         ORCA SCF GRADIENT CALCULATION
------------------------------------------------------------------------------

Gradient of the Kohn-Sham DFT energy:
Kohn-Sham wavefunction type      ... UKS
Hartree-Fock exchange scaling    ...    0.200
Number of operators              ...    2
Number of atoms                  ...   20
Basis set dimensions             ...  112
Integral neglect threshold       ... 1.0e-12
Integral primitive cutoff        ... 1.0e-14

Nuclear repulsion gradient       ... done
One Electron Gradient            ... done
Pre-screening matrix             ... done
Starting the two electron gradient:
Two electron gradient done
Exchange-correlation gradient    ... done
Dispersion correction            ... done

------------------
CARTESIAN GRADIENT
------------------

   1   C   :    0.011891270    0.018471712   -0.010949626
   2   C   :    0.000741835   -0.007429911   -0.003479944
   3   C   :    0.003361710    0.006080303    0.007259337
   4   C   :    0.001291716   -0.024715587    0.020557155
   5   C   :   -0.016191244    0.008288959   -0.002732872
   6   C   :    0.003777724   -0.000425076    0.000363047
   7   H   :    0.004896089    0.001191018   -0.000834339
   8   H   :    0.008378280    0.005026229   -0.000904309
   9   H   :    0.007736378   -0.014677794   -0.005954631
  10   H   :   -0.003399618    0.005965678    0.000950805
  11   H   :    0.002955263    0.004589268    0.004538377
  12   H   :    0.009751050   -0.012304370   -0.001930510
  13   H   :   -0.007679515    0.000998613   -0.003255626
  14   H   :   -0.004361866    0.009298012    0.005065001
  15   H   :   -0.002923391   -0.003658086   -0.008550022
  16   H   :   -0.003819488    0.004270876    0.001250931
  17   H   :    0.009270638    0.001018044    0.001847486
  18   H   :   -0.014142859    0.005214684    0.003946270
  19   H   :   -0.007402946   -0.003669394   -0.009911773
  20   H   :   -0.004131023   -0.003533180    0.002725243

Difference to translation invariance:
           :   -0.0000000000   -0.0000000000   -0.0000000000

Norm of the cartesian gradient     ...    0.0617165344
RMS gradient                       ...    0.0079675703
MAX gradient                       ...    0.0247155865

-------
TIMINGS
-------

Total SCF gradient time            ...       10.739 sec

One electron gradient       ....       0.079 sec  (  0.7%)
Prescreening matrices       ....       0.042 sec  (  0.4%)
Two electron gradient       ....       4.616 sec  ( 43.0%)
XC gradient                 ....       5.885 sec  ( 54.8%)
------------------------------------------------------------------------------
                         ORCA GEOMETRY RELAXATION STEP
------------------------------------------------------------------------------

Reading the OPT-File                    .... done
Getting information on internals        .... done
Copying old internal coords+grads       .... done
Making the new internal coordinates     .... (new redundants).... done
Validating the new internal coordinates .... (new redundants).... done
Calculating the B-matrix                .... done
Calculating the G,G- and P matrices     .... done
Transforming gradient to internals      .... done
Projecting the internal gradient        .... done
Number of atoms                         ....  20
Number of internal coordinates          .... 100
Current Energy                          ....  -236.688506700 Eh
Current gradient norm                   ....     0.061716534 Eh/bohr
Maximum allowed component of the step   ....  0.300
Current trust radius                    ....  0.300
Evaluating the initial hessian          ....  (Almloef) done
Projecting the Hessian                  .... done
Forming the augmented Hessian           .... done
Diagonalizing the augmented Hessian     .... done
Last element of RFO vector              ....  0.932156003
Lowest eigenvalues of augmented Hessian:
 -0.032064219  0.011780317  0.012630927  0.013318794  0.013448764
Length of the computed step             ....  0.388408035
Warning: the length of the step is outside the trust region - taking restricted step instead
The input lambda is                     ....    -0.032064
   iter:   1  x=   -0.052069  g=    3.042318 f(x)=     0.060861
   iter:   2  x=   -0.066754  g=    1.378267 f(x)=     0.020240
   iter:   3  x=   -0.070634  g=    0.934272 f(x)=     0.003625
   iter:   4  x=   -0.070813  g=    0.856874 f(x)=     0.000154
   iter:   5  x=   -0.070814  g=    0.853563 f(x)=     0.000000
   iter:   6  x=   -0.070814  g=    0.853556 f(x)=     0.000000
   iter:   7  x=   -0.070814  g=    0.853556 f(x)=    -0.000000
The output lambda is                    ....    -0.070814 (7 iterations)
The final length of the internal step   ....  0.300000000
Converting the step to cartesian space:
 Initial RMS(Int)=    0.0300000000
Transforming coordinates:
 Iter   0:  RMS(Cart)=    0.1311690710 RMS(Int)=    0.0300005088
 Iter   1:  RMS(Cart)=    0.0031210287 RMS(Int)=    0.0018511375
 Iter   2:  RMS(Cart)=    0.0002499904 RMS(Int)=    0.0000935626
 Iter   3:  RMS(Cart)=    0.0000184270 RMS(Int)=    0.0000124890
 Iter   4:  RMS(Cart)=    0.0000015527 RMS(Int)=    0.0000008671
 Iter   5:  RMS(Cart)=    0.0000001365 RMS(Int)=    0.0000000922
 Iter   6:  RMS(Cart)=    0.0000000114 RMS(Int)=    0.0000000084
done
Storing new coordinates                 .... done

                                .--------------------.
          ----------------------|Geometry convergence|-------------------------
          Item                value                   Tolerance       Converged
          ---------------------------------------------------------------------
          RMS gradient        0.0102289929            0.0001000000      NO
          MAX gradient        0.0373202173            0.0003000000      NO
          RMS step            0.0300000000            0.0020000000      NO
          MAX step            0.0923978090            0.0040000000      NO
          ........................................................
          Max(Bonds)      0.0409      Max(Angles)    5.29
          Max(Dihed)        3.62      Max(Improp)    0.00
          ---------------------------------------------------------------------

The optimization has not yet converged - more geometry cycles are needed


    ---------------------------------------------------------------------------
                         Redundant Internal Coordinates
                            (Angstroem and degrees)

        Definition                    Value    dE/dq     Step     New-Value
    ----------------------------------------------------------------------------
     1. B(C   1,C   0)                1.5051 -0.034170  0.0377    1.5428   
     2. B(C   2,C   1)                1.5159 -0.026335  0.0300    1.5459   
     3. B(C   3,C   2)                1.5031 -0.037320  0.0409    1.5440   
     4. B(C   4,C   3)                1.5034 -0.029737  0.0326    1.5360   
     5. B(C   5,C   4)                1.5238 -0.020936  0.0245    1.5483   
     6. B(H   6,C   0)                1.1012 -0.001313  0.0017    1.1029   
     7. B(H   7,C   0)                1.1095  0.003403 -0.0044    1.1051   
     8. B(H   8,C   0)                1.1175  0.007576 -0.0101    1.1074   
     9. B(H   9,C   1)                1.1060  0.001824 -0.0024    1.1037   
    10. B(H  10,C   1)                1.0985 -0.004319  0.0054    1.1040   
    11. B(H  11,C   2)                1.1191  0.008723 -0.0117    1.1074   
    12. B(H  12,C   2)                1.1067  0.001996 -0.0026    1.1041   
    13. B(H  13,C   3)                1.1179  0.006403 -0.0086    1.1094   
    14. B(H  14,C   3)                1.1196  0.009114 -0.0122    1.1073   
    15. B(H  15,C   4)                1.0996 -0.003479  0.0044    1.1040   
    16. B(H  16,C   4)                1.1038 -0.001929  0.0025    1.1063   
    17. B(H  17,C   5)                1.1196  0.009755 -0.0131    1.1065   
    18. B(H  18,C   5)                1.1098  0.003463 -0.0045    1.1053   
    19. B(H  19,C   5)                1.1059  0.001157 -0.0015    1.1044   
    20. A(H   7,C   0,H   8)          110.76  0.012533   -1.83    108.93   
    21. A(C   1,C   0,H   7)          108.81 -0.008162    1.32    110.13   
    22. A(C   1,C   0,H   6)          111.40 -0.000235    0.06    111.46   
    23. A(H   6,C   0,H   7)          107.41  0.003729   -0.46    106.95   
    24. A(H   6,C   0,H   8)          112.31  0.012384   -2.07    110.24   
    25. A(C   1,C   0,H   8)          106.14 -0.020705    3.05    109.20   
    26. A(C   2,C   1,H  10)          108.10  0.001994   -0.01    108.08   
    27. A(C   0,C   1,H  10)          112.86  0.010510   -1.67    111.18   
    28. A(C   2,C   1,H   9)          109.10  0.008439   -1.00    108.10   
    29. A(C   0,C   1,H   9)          107.83 -0.000337    0.59    108.42   
    30. A(H   9,C   1,H  10)          109.42 -0.000125   -1.11    108.31   
    31. A(C   0,C   1,C   2)          109.48 -0.020371    3.21    112.69   
    32. A(H  11,C   2,H  12)          112.37 -0.000353   -1.79    110.59   
    33. A(C   1,C   2,C   3)          106.91 -0.033343    5.29    112.21   
    34. A(C   3,C   2,H  11)          106.87  0.003469   -0.03    106.84   
    35. A(C   1,C   2,H  11)          110.50  0.012973   -1.86    108.64   
    36. A(C   1,C   2,H  12)          106.57  0.003772    0.24    106.81   
    37. A(C   3,C   2,H  12)          113.50  0.012095   -1.56    111.93   
    38. A(C   2,C   3,C   4)          113.43 -0.005479    0.89    114.32   
    39. A(H  13,C   3,H  14)          105.02  0.000161   -0.38    104.63   
    40. A(C   4,C   3,H  14)          109.09 -0.000196    0.02    109.11   
    41. A(C   2,C   3,H  14)          109.92  0.002930   -0.28    109.63   
    42. A(C   4,C   3,H  13)          112.20  0.007201   -1.32    110.89   
    43. A(C   2,C   3,H  13)          106.84 -0.004174    0.98    107.82   
    44. A(H  15,C   4,H  16)          107.02 -0.003024   -0.50    106.53   
    45. A(C   5,C   4,H  16)          106.57  0.002167    0.30    106.87   
    46. A(C   3,C   4,H  16)          113.48  0.011267   -1.77    111.71   
    47. A(C   5,C   4,H  15)          111.86  0.010246   -1.34    110.52   
    48. A(C   3,C   4,H  15)          110.23  0.004645   -0.52    109.72   
    49. A(C   3,C   4,C   5)          107.68 -0.024542    3.74    111.42   
    50. A(C   4,C   5,H  17)          104.72 -0.016247    2.51    107.23   
    51. A(H  18,C   5,H  19)          112.16  0.010177   -1.68    110.48   
    52. A(H  17,C   5,H  19)          110.34  0.008949   -1.35    108.99   
    53. A(C   4,C   5,H  19)          112.29 -0.001374    0.22    112.51   
    54. A(H  17,C   5,H  18)          111.21  0.011634   -1.65    109.56   
    55. A(C   4,C   5,H  18)          105.81 -0.015667    2.35    108.16   
    56. D(H   9,C   1,C   0,H   8)    103.49  0.004533   -2.01    101.48   
    57. D(H  10,C   1,C   0,H   7)    101.75 -0.002608    0.26    102.01   
    58. D(H   9,C   1,C   0,H   7)   -137.27  0.003606   -1.79   -139.06   
    59. D(H  10,C   1,C   0,H   8)    -17.48 -0.001680    0.03    -17.44   
    60. D(H   9,C   1,C   0,H   6)    -19.05  0.002925   -1.49    -20.53   
    61. D(C   2,C   1,C   0,H   8)   -137.92  0.003069   -1.08   -139.00   
    62. D(C   2,C   1,C   0,H   7)    -18.69  0.002141   -0.86    -19.55   
    63. D(C   2,C   1,C   0,H   6)     99.54  0.001460   -0.56     98.98   
    64. D(H  10,C   1,C   0,H   6)   -140.02 -0.003289    0.56   -139.46   
    65. D(H  11,C   2,C   1,H   9)   -160.78  0.003297   -1.64   -162.43   
    66. D(C   3,C   2,C   1,H  10)     74.07  0.001125   -1.57     72.50   
    67. D(C   3,C   2,C   1,C   0)   -162.62  0.002628   -1.64   -164.26   
    68. D(H  11,C   2,C   1,C   0)     81.43  0.010562   -3.62     77.80   
    69. D(H  11,C   2,C   1,H  10)    -41.88  0.009059   -3.55    -45.43   
    70. D(H  12,C   2,C   1,H  10)   -164.24 -0.000537   -0.43   -164.67   
    71. D(H  12,C   2,C   1,H   9)     76.85 -0.006299    1.48     78.33   
    72. D(H  12,C   2,C   1,C   0)    -40.94  0.000966   -0.50    -41.44   
    73. D(C   3,C   2,C   1,H   9)    -44.83 -0.004637    0.34    -44.49   
    74. D(H  14,C   3,C   2,H  11)    142.49 -0.005370    2.48    144.96   
    75. D(H  14,C   3,C   2,C   1)     24.14 -0.005254    1.96     26.10   
    76. D(H  13,C   3,C   2,H  12)     20.36  0.004205   -0.94     19.41   
    77. D(H  13,C   3,C   2,H  11)   -104.09 -0.005950    2.40   -101.68   
    78. D(H  13,C   3,C   2,C   1)    137.56 -0.005835    1.89    139.45   
    79. D(C   4,C   3,C   2,H  11)     20.07 -0.003434    2.03     22.10   
    80. D(C   4,C   3,C   2,H  12)    144.51  0.006720   -1.32    143.20   
    81. D(H  14,C   3,C   2,H  12)    -93.07  0.004785   -0.87    -93.94   
    82. D(C   4,C   3,C   2,C   1)    -98.28 -0.003319    1.51    -96.77   
    83. D(H  15,C   4,C   3,C   2)    129.83  0.002535   -0.27    129.56   
    84. D(C   5,C   4,C   3,H  14)    129.24  0.002463   -0.13    129.11   
    85. D(C   5,C   4,C   3,H  13)     13.30 -0.001814    1.10     14.40   
    86. D(C   5,C   4,C   3,C   2)   -107.89  0.002308    0.14   -107.74   
    87. D(H  16,C   4,C   3,H  14)   -113.06 -0.004374    1.66   -111.40   
    88. D(H  16,C   4,C   3,H  13)    131.01 -0.008651    2.88    133.89   
    89. D(H  16,C   4,C   3,C   2)      9.82 -0.004528    1.93     11.75   
    90. D(H  15,C   4,C   3,H  14)      6.96  0.002689   -0.54      6.42   
    91. D(H  15,C   4,C   3,H  13)   -108.98 -0.001588    0.68   -108.29   
    92. D(H  19,C   5,C   4,H  16)     37.51 -0.001211    0.74     38.25   
    93. D(H  19,C   5,C   4,H  15)    -79.14 -0.004346    1.87    -77.26   
    94. D(H  19,C   5,C   4,C   3)    159.59 -0.000160    0.87    160.46   
    95. D(H  18,C   5,C   4,H  16)    160.18  0.000069    0.36    160.54   
    96. D(H  18,C   5,C   4,H  15)     43.53 -0.003066    1.50     45.03   
    97. D(H  18,C   5,C   4,C   3)    -77.74  0.001120    0.49    -77.25   
    98. D(H  17,C   5,C   4,H  16)    -82.23 -0.001164    0.69    -81.55   
    99. D(H  17,C   5,C   4,H  15)    161.12 -0.004298    1.82    162.94   
   100. D(H  17,C   5,C   4,C   3)     39.85 -0.000113    0.82     40.67   
    ----------------------------------------------------------------------------

         *************************************************************
         *                GEOMETRY OPTIMIZATION CYCLE   2            *
         *************************************************************
---------------------------------
CARTESIAN COORDINATES (ANGSTROEM)
---------------------------------
  C     -3.004741    0.133938    0.758545
  C     -1.780571   -0.201579   -0.118365
  C     -0.483754    0.472401    0.385373
  C      0.632147    0.459927   -0.681682
  C      1.638793   -0.690353   -0.530836
  C      3.008338   -0.179884   -0.020043
  H     -3.612036    0.939251    0.312359
  H     -2.674774    0.491393    1.750787
  H     -3.617608   -0.778738    0.892031
  H     -1.977015    0.157794   -1.143225
  H     -1.606866   -1.290977   -0.160453
  H     -0.103409   -0.098971    1.254378
  H     -0.753891    1.500075    0.685449
  H      1.146233    1.442362   -0.646870
  H      0.180565    0.416299   -1.691817
  H      1.756122   -1.211626   -1.496979
  H      1.287333   -1.448198    0.194464
  H      2.804762    0.580485    0.757578
  H      3.537244    0.292360   -0.867881
  H      3.623128   -0.985959    0.418020

----------------------------
CARTESIAN COORDINATES (A.U.)
----------------------------
  NO LB      ZA    FRAG     MASS         X           Y           Z
   0 C     6.0000    0    12.011   -5.678137    0.253106    1.433442
   1 C     6.0000    0    12.011   -3.364792   -0.380928   -0.223678
   2 C     6.0000    0    12.011   -0.914163    0.892708    0.728250
   3 C     6.0000    0    12.011    1.194584    0.869137   -1.288192
   4 C     6.0000    0    12.011    3.096870   -1.304579   -1.003135
   5 C     6.0000    0    12.011    5.684934   -0.339931   -0.037875
   6 H     1.0000    0     1.008   -6.825758    1.774927    0.590273
   7 H     1.0000    0     1.008   -5.054590    0.928599    3.308508
   8 H     1.0000    0     1.008   -6.836289   -1.471602    1.685695
   9 H     1.0000    0     1.008   -3.736016    0.298187   -2.160382
  10 H     1.0000    0     1.008   -3.036537   -2.439593   -0.303212
  11 H     1.0000    0     1.008   -0.195414   -0.187028    2.370431
  12 H     1.0000    0     1.008   -1.424648    2.834730    1.295311
  13 H     1.0000    0     1.008    2.166067    2.725669   -1.222408
  14 H     1.0000    0     1.008    0.341217    0.786692   -3.197070
  15 H     1.0000    0     1.008    3.318589   -2.289641   -2.828881
  16 H     1.0000    0     1.008    2.432706   -2.736698    0.367484
  17 H     1.0000    0     1.008    5.300233    1.096957    1.431615
  18 H     1.0000    0     1.008    6.684423    0.552480   -1.640056
  19 H     1.0000    0     1.008    6.846719   -1.863192    0.789943

--------------------------------
INTERNAL COORDINATES (ANGSTROEM)
--------------------------------
 C      0   0   0     0.000000000000     0.00000000     0.00000000
 C      1   0   0     1.542768069141     0.00000000     0.00000000
 C      2   1   0     1.545876452615   112.68179535     0.00000000
 C      3   2   1     1.544020148439   112.18292318   195.71017324
 C      4   3   2     1.535980901815   114.32023430   263.20824460
 C      5   4   3     1.548270495176   111.42059811   252.27790654
 H      1   2   3     1.102913477467   111.45465238    99.00142800
 H      1   2   3     1.105078140673   110.10736060   340.48743621
 H      1   2   3     1.107430668280   109.17229985   221.00718885
 H      2   1   3     1.103664959341   108.40704694   240.45399836
 H      2   1   3     1.103962613783   111.16964110   121.52824445
 H      3   2   1     1.107383051715   108.59568272    77.83583411
 H      3   2   1     1.104143781933   106.80467077   318.59661675
 H      4   3   2     1.109357273206   107.82294091   139.41835353
 H      4   3   2     1.107340021656   109.63387801    26.07140326
 H      5   4   3     1.104048951118   109.71199074   129.57021095
 H      5   4   3     1.106306399102   111.66549157    11.73104204
 H      6   5   4     1.106479313297   107.19849240    40.70270064
 H      6   5   4     1.105253307261   108.12527312   282.75327843
 H      6   5   4     1.104365413965   112.49749245   160.48435919

---------------------------
INTERNAL COORDINATES (A.U.)
---------------------------
 C      0   0   0     0.000000000000     0.00000000     0.00000000
 C      1   0   0     2.915409138836     0.00000000     0.00000000
 C      2   1   0     2.921283132321   112.68179535     0.00000000
 C      3   2   1     2.917775225806   112.18292318   195.71017324
 C      4   3   2     2.902583251363   114.32023430   263.20824460
 C      5   4   3     2.925807217113   111.42059811   252.27790654
 H      1   2   3     2.084204421824   111.45465238    99.00142800
 H      1   2   3     2.088295042456   110.10736060   340.48743621
[...]
  32   0.0000       0.143447         3.9034 
  33   0.0000       0.148466         4.0400 
  34   0.0000       0.156598         4.2613 
  35   0.0000       0.163059         4.4371 
  36   0.0000       0.172192         4.6856 
  37   0.0000       0.173875         4.7314 
  38   0.0000       0.187458         5.1010 
  39   0.0000       0.225024         6.1232 
  40   0.0000       0.231587         6.3018 
  41   0.0000       0.241377         6.5682 
  42   0.0000       0.256476         6.9791 
  43   0.0000       0.284282         7.7357 
  44   0.0000       0.414318        11.2742 
  45   0.0000       0.423387        11.5210 
  46   0.0000       0.431033        11.7290 
  47   0.0000       0.438565        11.9340 
  48   0.0000       0.444693        12.1007 
  49   0.0000       0.458492        12.4762 
  50   0.0000       0.488433        13.2910 
  51   0.0000       0.529459        14.4073 
  52   0.0000       0.559024        15.2118 
  53   0.0000       0.612175        16.6581 
  54   0.0000       0.621550        16.9132 
  55   0.0000       0.630192        17.1484 
  56   0.0000       0.645192        17.5566 
  57   0.0000       0.662235        18.0203 
  58   0.0000       0.677380        18.4324 
  59   0.0000       0.683253        18.5923 
  60   0.0000       0.690803        18.7977 
  61   0.0000       0.700446        19.0601 
  62   0.0000       0.705499        19.1976 
  63   0.0000       0.712969        19.4009 
  64   0.0000       0.717128        19.5140 
  65   0.0000       0.718164        19.5422 
  66   0.0000       0.728127        19.8133 
  67   0.0000       0.731879        19.9154 
  68   0.0000       0.738007        20.0822 
  69   0.0000       0.743144        20.2220 
  70   0.0000       0.746000        20.2997 
  71   0.0000       0.755954        20.5706 
  72   0.0000       0.759381        20.6638 
  73   0.0000       0.764396        20.8003 
  74   0.0000       0.776153        21.1202 
  75   0.0000       0.850492        23.1431 
  76   0.0000       0.989463        26.9247 
  77   0.0000       1.007918        27.4268 
  78   0.0000       1.035115        28.1669 
  79   0.0000       1.061312        28.8798 
  80   0.0000       1.142252        31.0823 
  81   0.0000       1.150618        31.3099 
  82   0.0000       1.415091        38.5066 
  83   0.0000       1.445449        39.3327 
  84   0.0000       1.549040        42.1515 
  85   0.0000       1.574909        42.8555 
  86   0.0000       1.671374        45.4804 
  87   0.0000       1.775317        48.3088 
  88   0.0000       1.832794        49.8729 
  89   0.0000       1.860995        50.6403 
  90   0.0000       1.895224        51.5717 
  91   0.0000       1.914023        52.0832 
  92   0.0000       1.919137        52.2224 
  93   0.0000       1.937855        52.7317 
  94   0.0000       1.980180        53.8834 
  95   0.0000       1.990908        54.1754 
  96   0.0000       2.056239        55.9531 
  97   0.0000       2.085288        56.7436 
  98   0.0000       2.132388        58.0252 
  99   0.0000       2.166744        58.9601 
 100   0.0000       2.197429        59.7951 
 101   0.0000       2.253049        61.3086 
 102   0.0000       2.267915        61.7131 
 103   0.0000       2.287353        62.2420 
 104   0.0000       2.311476        62.8985 
 105   0.0000       2.369611        64.4804 
 106   0.0000       2.387620        64.9704 
 107   0.0000       2.507314        68.2275 
 108   0.0000       2.566840        69.8473 
 109   0.0000       2.640208        71.8437 
 110   0.0000       2.685194        73.0678 
 111   0.0000       2.743754        74.6613 

                    ********************************
                    * MULLIKEN POPULATION ANALYSIS *
                    ********************************

------------------------------------------
FOD BASED MULLIKEN REDUCED ORBITAL CHARGES
------------------------------------------
  0 C s       :    -0.000000  s :    -0.000000
      pz      :     0.000000  p :     0.000000
      px      :     0.000000
      py      :     0.000000
      dz2     :     0.000000  d :     0.000000
      dxz     :     0.000000
      dyz     :     0.000000
      dx2y2   :     0.000000
      dxy     :     0.000000
  1 C s       :    -0.000000  s :    -0.000000
      pz      :     0.000000  p :     0.000000
      px      :     0.000000
      py      :     0.000000
      dz2     :     0.000000  d :     0.000000
      dxz     :     0.000000
      dyz     :     0.000000
      dx2y2   :     0.000000
      dxy     :     0.000000
  2 C s       :    -0.000000  s :    -0.000000
      pz      :     0.000000  p :     0.000000
      px      :     0.000000
      py      :     0.000000
      dz2     :     0.000000  d :     0.000000
      dxz     :     0.000000
      dyz     :     0.000000
      dx2y2   :     0.000000
      dxy     :     0.000000
  3 C s       :    -0.000000  s :    -0.000000
      pz      :     0.000000  p :     0.000000
      px      :     0.000000
      py      :     0.000000
      dz2     :     0.000000  d :     0.000000
      dxz     :     0.000000
      dyz     :     0.000000
      dx2y2   :     0.000000
      dxy     :     0.000000
  4 C s       :    -0.000000  s :    -0.000000
      pz      :     0.000000  p :     0.000000
      px      :     0.000000
      py      :     0.000000
      dz2     :     0.000000  d :     0.000000
      dxz     :     0.000000
      dyz     :     0.000000
      dx2y2   :     0.000000
      dxy     :     0.000000
  5 C s       :    -0.000000  s :    -0.000000
      pz      :     0.000000  p :     0.000000
      px      :     0.000000
      py      :     0.000000
      dz2     :     0.000000  d :     0.000000
      dxz     :     0.000000
      dyz     :     0.000000
      dx2y2   :     0.000000
      dxy     :     0.000000
  6 H s       :     0.000000  s :     0.000000
  7 H s       :     0.000000  s :     0.000000
  8 H s       :     0.000000  s :     0.000000
  9 H s       :     0.000000  s :     0.000000
 10 H s       :     0.000000  s :     0.000000
 11 H s       :     0.000000  s :     0.000000
 12 H s       :     0.000000  s :     0.000000
 13 H s       :     0.000000  s :     0.000000
 14 H s       :     0.000000  s :     0.000000
 15 H s       :     0.000000  s :     0.000000
 16 H s       :     0.000000  s :     0.000000
 17 H s       :     0.000000  s :     0.000000
 18 H s       :     0.000000  s :     0.000000
 19 H s       :     0.000000  s :     0.000000


                     *******************************
                     * LOEWDIN POPULATION ANALYSIS *
                     *******************************

-------------------------------------------
LOEWDIN ATOMIC CHARGES AND SPIN POPULATIONS
-------------------------------------------
   0 C :   -0.317912    0.000000
   1 C :   -0.219997    0.000000
   2 C :   -0.213808    0.000000
   3 C :   -0.209730    0.000000
   4 C :   -0.220901    0.000000
   5 C :   -0.323008    0.000000
   6 H :    0.108144    0.000000
   7 H :    0.108628    0.000000
   8 H :    0.110676    0.000000
   9 H :    0.105078    0.000000
  10 H :    0.106449    0.000000
  11 H :    0.104314    0.000000
  12 H :    0.106790    0.000000
  13 H :    0.105668    0.000000
  14 H :    0.105615    0.000000
  15 H :    0.108511    0.000000
  16 H :    0.105592    0.000000
  17 H :    0.108745    0.000000
  18 H :    0.109119    0.000000
  19 H :    0.112027    0.000000

----------------------------------------------------
LOEWDIN REDUCED ORBITAL CHARGES AND SPIN POPULATIONS
----------------------------------------------------
CHARGE
  0 C s       :     2.952351  s :     2.952351
      pz      :     1.096601  p :     3.292067
      px      :     1.086038
      py      :     1.109427
      dz2     :     0.019447  d :     0.073495
      dxz     :     0.016148
      dyz     :     0.007414
      dx2y2   :     0.005601
      dxy     :     0.024885
  1 C s       :     2.910834  s :     2.910834
      pz      :     1.079295  p :     3.218572
      px      :     1.059471
      py      :     1.079805
      dz2     :     0.019033  d :     0.090592
      dxz     :     0.021465
      dyz     :     0.011941
      dx2y2   :     0.012516
      dxy     :     0.025637
  2 C s       :     2.912526  s :     2.912526
      pz      :     1.080481  p :     3.211126
      px      :     1.057539
      py      :     1.073106
      dz2     :     0.020010  d :     0.090157
      dxz     :     0.022543
      dyz     :     0.009986
      dx2y2   :     0.011703
      dxy     :     0.025915
  3 C s       :     2.912768  s :     2.912768
      pz      :     1.074345  p :     3.206891
      px      :     1.060355
      py      :     1.072191
      dz2     :     0.022440  d :     0.090071
      dxz     :     0.022459
      dyz     :     0.006131
      dx2y2   :     0.011695
      dxy     :     0.027346
  4 C s       :     2.910289  s :     2.910289
      pz      :     1.070864  p :     3.220027
      px      :     1.070537
      py      :     1.078626
      dz2     :     0.020468  d :     0.090585
      dxz     :     0.027114
      dyz     :     0.007334
      dx2y2   :     0.011659
      dxy     :     0.024010
  5 C s       :     2.951314  s :     2.951314
      pz      :     1.086971  p :     3.298413
      px      :     1.099730
      py      :     1.111713
      dz2     :     0.019982  d :     0.073281
      dxz     :     0.021227
      dyz     :     0.004415
      dx2y2   :     0.004921
      dxy     :     0.022736
  6 H s       :     0.891856  s :     0.891856
  7 H s       :     0.891372  s :     0.891372
  8 H s       :     0.889324  s :     0.889324
  9 H s       :     0.894922  s :     0.894922
 10 H s       :     0.893551  s :     0.893551
 11 H s       :     0.895686  s :     0.895686
 12 H s       :     0.893210  s :     0.893210
 13 H s       :     0.894332  s :     0.894332
 14 H s       :     0.894385  s :     0.894385
 15 H s       :     0.891489  s :     0.891489
 16 H s       :     0.894408  s :     0.894408
 17 H s       :     0.891255  s :     0.891255
 18 H s       :     0.890881  s :     0.890881
 19 H s       :     0.887973  s :     0.887973

SPIN
  0 C s       :     0.000000  s :     0.000000
      pz      :     0.000000  p :     0.000000
      px      :     0.000000
      py      :     0.000000
      dz2     :     0.000000  d :     0.000000
      dxz     :     0.000000
      dyz     :     0.000000
      dx2y2   :     0.000000
      dxy     :     0.000000
  1 C s       :     0.000000  s :     0.000000
      pz      :     0.000000  p :     0.000000
      px      :     0.000000
      py      :     0.000000
      dz2     :     0.000000  d :     0.000000
      dxz     :     0.000000
      dyz     :     0.000000
      dx2y2   :     0.000000
      dxy     :     0.000000
  2 C s       :     0.000000  s :     0.000000
      pz      :     0.000000  p :     0.000000
      px      :     0.000000
      py      :     0.000000
      dz2     :     0.000000  d :     0.000000
      dxz     :     0.000000
      dyz     :     0.000000
      dx2y2   :     0.000000
      dxy     :     0.000000
  3 C s       :     0.000000  s :     0.000000
      pz      :     0.000000  p :     0.000000
      px      :     0.000000
      py      :     0.000000
      dz2     :     0.000000  d :     0.000000
      dxz     :     0.000000
      dyz     :     0.000000
      dx2y2   :     0.000000
      dxy     :     0.000000
  4 C s       :     0.000000  s :     0.000000
      pz      :     0.000000  p :     0.000000
      px      :     0.000000
      py      :     0.000000
      dz2     :     0.000000  d :     0.000000
      dxz     :     0.000000
      dyz     :     0.000000
      dx2y2   :     0.000000
      dxy     :     0.000000
  5 C s       :     0.000000  s :     0.000000
      pz      :     0.000000  p :     0.000000
      px      :     0.000000
      py      :     0.000000
      dz2     :     0.000000  d :     0.000000
      dxz     :     0.000000
      dyz     :     0.000000
      dx2y2   :     0.000000
      dxy     :     0.000000
  6 H s       :     0.000000  s :     0.000000
  7 H s       :     0.000000  s :     0.000000
  8 H s       :     0.000000  s :     0.000000
  9 H s       :     0.000000  s :     0.000000
 10 H s       :     0.000000  s :     0.000000
 11 H s       :     0.000000  s :     0.000000
 12 H s       :     0.000000  s :     0.000000
 13 H s       :     0.000000  s :     0.000000
 14 H s       :     0.000000  s :     0.000000
 15 H s       :     0.000000  s :     0.000000
 16 H s       :     0.000000  s :     0.000000
 17 H s       :     0.000000  s :     0.000000
 18 H s       :     0.000000  s :     0.000000
 19 H s       :     0.000000  s :     0.000000


                      *****************************
                      * MAYER POPULATION ANALYSIS *
                      *****************************

  NA   - Mulliken gross atomic population
  ZA   - Total nuclear charge
  QA   - Mulliken gross atomic charge
  VA   - Mayer's total valence
  BVA  - Mayer's bonded valence
  FA   - Mayer's free valence

  ATOM       NA         ZA         QA         VA         BVA        FA
  0 C      6.2412     6.0000    -0.2412     4.0055     4.0055     0.0000
  1 C      6.1714     6.0000    -0.1714     4.1215     4.1215     0.0000
  2 C      6.1530     6.0000    -0.1530     4.0851     4.0851     0.0000
  3 C      6.1144     6.0000    -0.1144     4.0852     4.0852     0.0000
  4 C      6.1580     6.0000    -0.1580     4.1197     4.1197     0.0000
  5 C      6.2742     6.0000    -0.2742     4.0089     4.0089     0.0000
  6 H      0.9144     1.0000     0.0856     0.9578     0.9578     0.0000
  7 H      0.9150     1.0000     0.0850     0.9573     0.9573     0.0000
  8 H      0.9078     1.0000     0.0922     0.9514     0.9514     0.0000
  9 H      0.9315     1.0000     0.0685     0.9500     0.9500     0.0000
 10 H      0.9187     1.0000     0.0813     0.9501     0.9501     0.0000
 11 H      0.9287     1.0000     0.0713     0.9578     0.9578     0.0000
 12 H      0.9333     1.0000     0.0667     0.9518     0.9518     0.0000
 13 H      0.9328     1.0000     0.0672     0.9504     0.9504     0.0000
 14 H      0.9352     1.0000     0.0648     0.9520     0.9520     0.0000
 15 H      0.9266     1.0000     0.0734     0.9454     0.9454     0.0000
 16 H      0.9214     1.0000     0.0786     0.9511     0.9511     0.0000
 17 H      0.9038     1.0000     0.0962     0.9582     0.9582     0.0000
 18 H      0.9115     1.0000     0.0885     0.9566     0.9566     0.0000
 19 H      0.9071     1.0000     0.0929     0.9517     0.9517     0.0000

  Mayer bond orders larger than 0.100000
B(  0-C ,  1-C ) :   1.1332 B(  0-C ,  6-H ) :   0.9601 B(  0-C ,  7-H ) :   0.9599 
B(  0-C ,  8-H ) :   0.9604 B(  1-C ,  2-C ) :   1.1143 B(  1-C ,  9-H ) :   0.9357 
B(  1-C , 10-H ) :   0.9286 B(  2-C ,  3-C ) :   1.1119 B(  2-C , 11-H ) :   0.9265 
B(  2-C , 12-H ) :   0.9311 B(  3-C ,  4-C ) :   1.1094 B(  3-C , 13-H ) :   0.9325 
B(  3-C , 14-H ) :   0.9296 B(  4-C ,  5-C ) :   1.1285 B(  4-C , 15-H ) :   0.9352 
B(  4-C , 16-H ) :   0.9326 B(  5-C , 17-H ) :   0.9548 B(  5-C , 18-H ) :   0.9616 
B(  5-C , 19-H ) :   0.9593 

-------
TIMINGS
-------

Total SCF time: 0 days 0 hours 1 min 23 sec 

Total time                  ....      83.459 sec
Sum of individual times     ....      68.406 sec  ( 82.0%)

Fock matrix formation       ....      60.623 sec  ( 72.6%)
  XC integration            ....      26.432 sec  ( 43.6% of F)
    Basis function eval.    ....       1.097 sec  (  4.2% of XC)
    Density eval.           ....       0.869 sec  (  3.3% of XC)
    XC-Functional eval.     ....       0.247 sec  (  0.9% of XC)
    XC-Potential eval.      ....       1.163 sec  (  4.4% of XC)
Diagonalization             ....       0.052 sec  (  0.1%)
Density matrix formation    ....       3.054 sec  (  3.7%)
Population analysis         ....       1.668 sec  (  2.0%)
Initial guess               ....       0.010 sec  (  0.0%)
Orbital Transformation      ....       0.000 sec  (  0.0%)
Orbital Orthonormalization  ....       0.005 sec  (  0.0%)
DIIS solution               ....       0.566 sec  (  0.7%)
Grid generation             ....       2.433 sec  (  2.9%)


-------------------------------------------------------------------------------
                          DFT DISPERSION CORRECTION                            
                                                                               
                              DFTD3 V3.1  Rev 1                                
                          USING Becke-Johnson damping                          
-------------------------------------------------------------------------------
The B3LYP functional is recognized
Active option DFTDOPT                   ...         4   

molecular C6(AA) [au] = 2519.010031 


            DFT-D V3
 parameters
 s6 scaling factor         :     1.0000 
 a1 scaling factor         :     0.3981 
 s8 scaling factor         :     1.9889 
 a2 scaling factor         :     4.4211 
 ad hoc parameters k1-k3   :    16.0000     1.3333    -4.0000 

 Edisp/kcal,au: -15.984286044915  -0.025472578504 
 E6   /kcal   :  -8.018266955 
 E8   /kcal   :  -7.966019090 
 % E8         :  49.836564909 

-------------------------   ----------------
Dispersion correction           -0.025472579
-------------------------   ----------------


-------------------------   --------------------
FINAL SINGLE POINT ENERGY      -236.722990851504
-------------------------   --------------------

                                *** OPTIMIZATION RUN DONE ***

                            ***************************************
                            *     ORCA property calculations      *
                            ***************************************

                                    ---------------------
                                    Active property flags
                                    ---------------------
   (+) Dipole Moment


------------------------------------------------------------------------------
                       ORCA ELECTRIC PROPERTIES CALCULATION
------------------------------------------------------------------------------

Dipole Moment Calculation                       ... on
Quadrupole Moment Calculation                   ... off
Polarizability Calculation                      ... off
GBWName                                         ... orca7.gbw
Electron density file                           ... orca7.scfp
The origin for moment calculation is the CENTER OF MASS  = ( 0.018453,  0.036542 -0.111754)

-------------
DIPOLE MOMENT
-------------
                                X             Y             Z
Electronic contribution:      0.20976       0.37584      -1.28144
Nuclear contribution   :     -0.20001      -0.39607       1.26334
                        -----------------------------------------
Total Dipole Moment    :      0.00975      -0.02023      -0.01810
                        -----------------------------------------
Magnitude (a.u.)       :      0.02884
Magnitude (Debye)      :      0.07331



--------------------
Rotational spectrum 
--------------------
 
Rotational constants in cm-1:     0.206256     0.055005     0.050147 
Rotational constants in MHz :  6183.393867  1649.019238  1503.374455 

 Dipole components along the rotational axes: 
x,y,z [a.u.] :     0.015932     0.001203     0.024014 
x,y,z [Debye]:     0.040496     0.003059     0.061039 

 

Timings for individual modules:

Sum of individual times         ...     6443.073 sec (= 107.385 min)
GTO integral calculation        ...      163.925 sec (=   2.732 min)   2.5 %
SCF iterations                  ...     5918.887 sec (=  98.648 min)  91.9 %
SCF Gradient evaluation         ...      259.463 sec (=   4.324 min)   4.0 %
Geometry relaxation             ...      100.798 sec (=   1.680 min)   1.6 %
                             ****ORCA TERMINATED NORMALLY****
TOTAL RUN TIME: 0 days 1 hours 51 minutes 6 seconds 510 msec
