
                                 *****************
                                 * O   R   C   A *
                                 *****************

           --- An Ab Initio, DFT and Semiempirical electronic structure package ---

                  #######################################################
                  #                        -***-                        #
                  #          Department of theory and spectroscopy      #
                  #               Directorship: Frank Neese             #
                  #        Max Planck Institute fuer Kohlenforschung    #
                  #                Kaiser Wilhelm Platz 1               #
                  #                 D-45470 Muelheim/Ruhr               #
                  #                      Germany                        #
                  #                                                     #
                  #                  All rights reserved                #
                  #                        -***-                        #
                  #######################################################


                         Program Version 4.2.1 -  RELEASE  -


 With contributions from (in alphabetic order):
   Daniel Aravena         : Magnetic Suceptibility
   Michael Atanasov       : Ab Initio Ligand Field Theory (pilot matlab implementation)
   Alexander A. Auer      : GIAO ZORA, VPT2
   Ute Becker             : Parallelization
   Giovanni Bistoni       : ED, misc. LED, open-shell LED, HFLD
   Martin Brehm           : Molecular dynamics
   Dmytro Bykov           : SCF Hessian
   Vijay G. Chilkuri      : MRCI spin determinant printing, contributions to CSF-ICE
   Dipayan Datta          : RHF DLPNO-CCSD density
   Achintya Kumar Dutta   : EOM-CC, STEOM-CC
   Dmitry Ganyushin       : Spin-Orbit,Spin-Spin,Magnetic field MRCI
   Miquel Garcia          : C-PCM Hessian, Gaussian charge scheme
   Yang Guo               : DLPNO-NEVPT2, CIM, IAO-localization
   Andreas Hansen         : Spin unrestricted coupled pair/coupled cluster methods
   Benjamin Helmich-Paris : CASSCF linear response (MC-RPA)
   Lee Huntington         : MR-EOM, pCC
   Robert Izsak           : Overlap fitted RIJCOSX, COSX-SCS-MP3, EOM
   Christian Kollmar      : KDIIS, OOCD, Brueckner-CCSD(T), CCSD density
   Simone Kossmann        : Meta GGA functionals, TD-DFT gradient, OOMP2, MP2 Hessian
   Martin Krupicka        : AUTO-CI
   Lucas Lang             : DCDCAS
   Dagmar Lenk            : GEPOL surface, SMD
   Dimitrios Liakos       : Extrapolation schemes; Compound Job, initial MDCI parallelization
   Dimitrios Manganas     : Further ROCIS development; embedding schemes
   Dimitrios Pantazis     : SARC Basis sets
   Taras Petrenko         : DFT Hessian,TD-DFT gradient, ASA, ECA, R-Raman, ABS, FL, XAS/XES, NRVS
   Peter Pinski           : DLPNO-MP2, DLPNO-MP2 Gradient
   Christoph Reimann      : Effective Core Potentials
   Marius Retegan         : Local ZFS, SOC
   Christoph Riplinger    : Optimizer, TS searches, QM/MM, DLPNO-CCSD(T), (RO)-DLPNO pert. Triples
   Tobias Risthaus        : Range-separated hybrids, TD-DFT gradient, RPA, STAB
   Michael Roemelt        : Original ROCIS implementation
   Masaaki Saitow         : Open-shell DLPNO-CCSD energy and density
   Barbara Sandhoefer     : DKH picture change effects
   Avijit Sen             : IP-ROCIS
   Kantharuban Sivalingam : CASSCF convergence, NEVPT2, FIC-MRCI
   Bernardo de Souza      : ESD, SOC TD-DFT
   Georgi Stoychev        : AutoAux, RI-MP2 NMR
   Willem Van den Heuvel  : Paramagnetic NMR
   Boris Wezisla          : Elementary symmetry handling
   Frank Wennmohs         : Technical directorship


 We gratefully acknowledge several colleagues who have allowed us to
 interface, adapt or use parts of their codes:
   Stefan Grimme, W. Hujo, H. Kruse,             : VdW corrections, initial TS optimization,
                  C. Bannwarth                     DFT functionals, gCP, sTDA/sTD-DF
   Ed Valeev, F. Pavosevic, A. Kumar             : LibInt (2-el integral package), F12 methods
   Garnet Chan, S. Sharma, J. Yang, R. Olivares  : DMRG
   Ulf Ekstrom                                   : XCFun DFT Library
   Mihaly Kallay                                 : mrcc  (arbitrary order and MRCC methods)
   Andreas Klamt, Michael Diedenhofen            : otool_cosmo (COSMO solvation model)
   Jiri Pittner, Ondrej Demel                    : Mk-CCSD
   Frank Weinhold                                : gennbo (NPA and NBO analysis)
   Christopher J. Cramer and Donald G. Truhlar   : smd solvation model
   Lars Goerigk                                  : TD-DFT with DH, B97 family of functionals
   V. Asgeirsson, H. Jonsson                     : NEB implementation
   FAccTs GmbH                                   : IRC, NEB, NEB-TS, Multilevel, MM, QM/MM, CI optimization
   S Lehtola, MJT Oliveira, MAL Marques          : LibXC Library


 Your calculation uses the libint2 library for the computation of 2-el integrals
 For citations please refer to: http://libint.valeyev.net

 Your ORCA version has been built with support for libXC version: 4.2.3
 For citations please refer to: https://tddft.org/programs/libxc/

 This ORCA versions uses:
   CBLAS   interface :  Fast vector & matrix operations
   LAPACKE interface :  Fast linear algebra routines
   SCALAPACK package :  Parallel linear algebra routines


Your calculation utilizes the atom-pairwise dispersion correction
with the Becke-Johnson damping scheme (D3BJ)
Cite in your paper:
S.Grimme, S.Ehrlich, L.Goerigk, J Comput Chem, (2011), 32, 1456–1465 
S.Grimme, J.Antony, S.Ehrlich and H.Krieg, J.Chem.Phys., 132, (2010), 154104 
   

----- Orbital basis set information -----
Your calculation utilizes the basis: def2-SV(P)
   F. Weigend and R. Ahlrichs, Phys. Chem. Chem. Phys. 7, 3297 (2005).

----- AuxJ basis set information -----
Your calculation utilizes the auxiliary basis: def2/J
   F. Weigend, Phys. Chem. Chem. Phys. 8, 1057 (2006).

================================================================================
                                        WARNINGS
                       Please study these warnings very carefully!
================================================================================


WARNING: Geometry Optimization
  ===> : Switching off AutoStart
         For restart on a previous wavefunction, please use MOREAD

INFO   : the flag for use of LIBINT has been found!

================================================================================
                                       INPUT FILE
================================================================================
NAME = orca5.inp
|  1> ! UKS B3LYP def2-SV(P) def2/J D3BJ Opt
|  2> %scf Convergence VeryTight
|  3> SmearTemp 2000
|  4> maxiter 500
|  5> end
|  6> *xyz 0 1
|  7> C 4.147282 1.069465 -0.045593
|  8> C 3.786907 -0.402858 0.116183
|  9> C 2.781798 -0.768101 -0.943066
| 10> C 1.606868 -1.504725 -0.327974
| 11> C 0.434331 -0.599982 -0.082196
| 12> C -0.835251 -1.423727 -0.17882
| 13> C -1.974414 -0.487395 -0.563887
| 14> C -2.461376 0.178014 0.691492
| 15> C -3.81536 0.807131 0.553639
| 16> C -3.802507 2.106287 -0.204033
| 17> H 3.997235 1.41223 -1.082156
| 18> H 5.200097 1.271969 0.224309
| 19> H 3.519829 1.670499 0.652175
| 20> H 3.408534 -0.576422 1.148063
| 21> H 4.727436 -0.976938 0.036965
| 22> H 3.285435 -1.494025 -1.629384
| 23> H 2.443296 0.106254 -1.520692
| 24> H 1.29128 -2.359691 -0.974228
| 25> H 1.98236 -1.955041 0.612636
| 26> H 0.340536 0.215343 -0.814962
| 27> H 0.460445 -0.121665 0.922878
| 28> H -1.009219 -1.857728 0.830069
| 29> H -0.711756 -2.25028 -0.89652
| 30> H -1.566892 0.271795 -1.253305
| 31> H -2.761118 -1.09068 -1.066686
| 32> H -1.674674 0.863792 1.042821
| 33> H -2.557496 -0.621637 1.468908
| 34> H -4.468639 0.103362 0.01903
| 35> H -4.180819 1.031507 1.587546
| 36> H -3.699414 1.970539 -1.298306
| 37> H -4.81094 2.567662 -0.049146
| 38> H -3.083791 2.845045 0.212854
| 39> *
| 40> 
| 41>                          ****END OF INPUT****
================================================================================

                       *****************************
                       * Geometry Optimization Run *
                       *****************************

Geometry optimization settings:
Update method            Update   .... BFGS
Choice of coordinates    CoordSys .... Z-matrix Internals
Initial Hessian          InHess   .... Almoef's Model

Convergence Tolerances:
Energy Change            TolE     ....  5.0000e-06 Eh
Max. Gradient            TolMAXG  ....  3.0000e-04 Eh/bohr
RMS Gradient             TolRMSG  ....  1.0000e-04 Eh/bohr
Max. Displacement        TolMAXD  ....  4.0000e-03 bohr
RMS Displacement         TolRMSD  ....  2.0000e-03 bohr
Strict Convergence                ....  False
------------------------------------------------------------------------------
                        ORCA OPTIMIZATION COORDINATE SETUP
------------------------------------------------------------------------------

The optimization will be done in new redundant internal coordinates
Making redundant internal coordinates   ...  (new redundants) done
Evaluating the initial hessian          ...  (Almloef) done
Evaluating the coordinates              ...  done
Calculating the B-matrix                .... done
Calculating the G-matrix                .... done
Diagonalizing the G-matrix              .... done
Small eigenvalue found = 3.301e-03
Small eigenvalue found = 1.097e-02
Small eigenvalue found = 1.466e-02
Small eigenvalue found = 2.398e-02
The first mode is                       ....   82
The number of degrees of freedom        ....   90

    -----------------------------------------------------------------
                    Redundant Internal Coordinates


    -----------------------------------------------------------------
         Definition                    Initial Value    Approx d2E/dq
    -----------------------------------------------------------------
      1. B(C   1,C   0)                  1.5244         0.381348   
      2. B(C   2,C   1)                  1.5052         0.409194   
      3. B(C   3,C   2)                  1.5170         0.391789   
      4. B(C   4,C   3)                  1.5013         0.415160   
      5. B(C   5,C   4)                  1.5165         0.392589   
      6. B(C   6,C   5)                  1.5240         0.381850   
      7. B(C   7,C   6)                  1.5020         0.414111   
      8. B(C   8,C   7)                  1.4994         0.418090   
      9. B(C   9,C   8)                  1.5040         0.411005   
     10. B(H  10,C   0)                  1.1020         0.344535   
     11. B(H  11,C   0)                  1.1056         0.340087   
     12. B(H  12,C   0)                  1.1144         0.329263   
     13. B(H  13,C   1)                  1.1127         0.331308   
     14. B(H  14,C   1)                  1.1047         0.341126   
     15. B(H  15,C   2)                  1.1188         0.323982   
     16. B(H  16,C   2)                  1.1012         0.345532   
     17. B(H  17,C   3)                  1.1172         0.325819   
     18. B(H  18,C   3)                  1.1084         0.336577   
     19. B(H  19,C   4)                  1.1002         0.346823   
     20. B(H  20,C   4)                  1.1134         0.330447   
     21. B(H  21,C   5)                  1.1120         0.332178   
     22. B(H  22,C   5)                  1.1016         0.345070   
     23. B(H  23,C   6)                  1.1035         0.342661   
     24. B(H  24,C   6)                  1.1116         0.332626   
     25. B(H  25,C   7)                  1.1012         0.345595   
     26. B(H  26,C   7)                  1.1194         0.323234   
     27. B(H  27,C   8)                  1.0990         0.348348   
     28. B(H  28,C   8)                  1.1193         0.323334   
     29. B(H  29,C   9)                  1.1075         0.337716   
     30. B(H  30,C   9)                  1.1197         0.322843   
     31. B(H  31,C   9)                  1.1118         0.332380   
     32. A(C   1,C   0,H  12)          108.7455         0.320676   
     33. A(C   1,C   0,H  11)          112.0941         0.322378   
     34. A(H  11,C   0,H  12)          106.5311         0.284247   
     35. A(C   1,C   0,H  10)          111.5948         0.323066   
     36. A(H  10,C   0,H  11)          107.5968         0.286261   
     37. A(H  10,C   0,H  12)          110.1538         0.284823   
     38. A(H  13,C   1,H  14)          105.9591         0.284656   
     39. A(C   2,C   1,H  14)          113.0754         0.326295   
     40. A(C   0,C   1,H  14)          107.0393         0.322540   
     41. A(C   0,C   1,H  13)          109.2364         0.321001   
     42. A(C   0,C   1,C   2)          108.5144         0.370374   
     43. A(C   2,C   1,H  13)          112.8111         0.324731   
     44. A(C   3,C   2,H  15)          106.3985         0.321245   
     45. A(C   3,C   2,H  16)          111.1083         0.324655   
     46. A(C   1,C   2,H  16)          112.4399         0.326985   
     47. A(C   1,C   2,H  15)          106.7710         0.323541   
     48. A(C   1,C   2,C   3)          110.4667         0.372099   
     49. A(H  15,C   2,H  16)          109.3767         0.284235   
     50. A(C   4,C   3,H  18)          111.7468         0.326351   
     51. A(C   4,C   3,H  17)          109.5884         0.324612   
     52. A(C   2,C   3,C   4)          112.2501         0.373028   
     53. A(C   2,C   3,H  17)          110.8438         0.321543   
     54. A(C   2,C   3,H  18)          106.1994         0.323259   
     55. A(H  17,C   3,H  18)          106.0019         0.283327   
     56. A(C   5,C   4,H  19)          106.7818         0.324963   
     57. A(C   3,C   4,H  19)          113.8375         0.327967   
     58. A(C   3,C   4,C   5)          108.4261         0.373159   
     59. A(C   5,C   4,H  20)          108.0900         0.322394   
     60. A(C   3,C   4,H  20)          112.8530         0.325366   
     61. A(H  19,C   4,H  20)          106.5505         0.285275   
     62. A(C   4,C   5,C   6)          107.9472         0.367831   
     63. A(C   6,C   5,H  22)          112.3436         0.323218   
     64. A(C   4,C   5,H  22)          110.8073         0.324693   
     65. A(C   6,C   5,H  21)          110.6152         0.321208   
     66. A(C   4,C   5,H  21)          106.5694         0.322670   
     67. A(H  21,C   5,H  22)          108.4091         0.285282   
     68. A(C   5,C   6,C   7)          107.6586         0.371220   
     69. A(H  23,C   6,H  24)          110.6187         0.285031   
     70. A(C   7,C   6,H  24)          112.8950         0.325582   
     71. A(C   5,C   6,H  24)          108.0500         0.321278   
     72. A(C   7,C   6,H  23)          109.7017         0.327179   
     73. A(C   5,C   6,H  23)          107.7276         0.322846   
     74. A(C   6,C   7,C   8)          113.6924         0.377071   
     75. A(H  25,C   7,H  26)          106.5375         0.284141   
     76. A(C   8,C   7,H  26)          106.6216         0.324563   
     77. A(C   6,C   7,H  26)          106.9680         0.324053   
     78. A(C   8,C   7,H  25)          114.4043         0.328156   
     79. A(C   6,C   7,H  25)          108.1160         0.327639   
     80. A(H  27,C   8,H  28)          112.5572         0.284505   
     81. A(C   9,C   8,H  28)          107.1554         0.323669   
     82. A(C   7,C   8,H  28)          107.0994         0.324579   
     83. A(C   9,C   8,H  27)          108.2500         0.327661   
     84. A(C   7,C   8,H  27)          108.2291         0.328586   
     85. A(C   7,C   8,C   9)          113.6433         0.376581   
     86. A(H  30,C   9,H  31)          104.8644         0.282373   
     87. A(H  29,C   9,H  31)          113.0645         0.284355   
     88. A(C   8,C   9,H  31)          112.9914         0.325140   
     89. A(H  29,C   9,H  30)          105.7249         0.283072   
     90. A(C   8,C   9,H  30)          106.1731         0.323589   
     91. A(C   8,C   9,H  29)          113.1215         0.325992   
     92. D(C   2,C   1,C   0,H  11)   -146.5047         0.011586   
     93. D(C   2,C   1,C   0,H  12)     95.9758         0.011586   
     94. D(H  13,C   1,C   0,H  11)     90.1361         0.011586   
     95. D(H  14,C   1,C   0,H  11)    -24.1646         0.011586   
     96. D(H  13,C   1,C   0,H  10)   -149.0945         0.011586   
     97. D(C   2,C   1,C   0,H  10)    -25.7353         0.011586   
     98. D(H  14,C   1,C   0,H  12)   -141.6841         0.011586   
     99. D(H  14,C   1,C   0,H  10)     96.6048         0.011586   
    100. D(H  13,C   1,C   0,H  12)    -27.3834         0.011586   
    101. D(C   3,C   2,C   1,H  13)     -9.9226         0.013265   
    102. D(C   3,C   2,C   1,H  14)    110.3028         0.013265   
    103. D(H  15,C   2,C   1,H  13)   -125.2127         0.013265   
    104. D(H  15,C   2,C   1,H  14)     -4.9873         0.013265   
    105. D(C   3,C   2,C   1,C   0)   -131.1056         0.013265   
    106. D(H  16,C   2,C   1,H  13)    114.8293         0.013265   
    107. D(H  16,C   2,C   1,H  14)   -124.9452         0.013265   
    108. D(H  16,C   2,C   1,C   0)     -6.3537         0.013265   
    109. D(H  15,C   2,C   1,C   0)    113.6042         0.013265   
    110. D(H  18,C   3,C   2,C   1)    -23.9243         0.012199   
    111. D(H  17,C   3,C   2,H  16)     95.8732         0.012199   
    112. D(H  18,C   3,C   2,H  15)     91.5994         0.012199   
    113. D(H  17,C   3,C   2,H  15)    -23.0951         0.012199   
    114. D(C   4,C   3,C   2,H  15)   -146.0081         0.012199   
    115. D(H  17,C   3,C   2,C   1)   -138.6189         0.012199   
    116. D(H  18,C   3,C   2,H  16)   -149.4322         0.012199   
    117. D(C   4,C   3,C   2,H  16)    -27.0397         0.012199   
    118. D(C   4,C   3,C   2,C   1)     98.4682         0.012199   
    119. D(C   5,C   4,C   3,H  18)    -89.9928         0.013644   
    120. D(C   5,C   4,C   3,H  17)     27.1991         0.013644   
    121. D(H  19,C   4,C   3,C   2)     32.1370         0.013644   
    122. D(C   5,C   4,C   3,C   2)    150.8168         0.013644   
    123. D(H  20,C   4,C   3,H  18)     29.7152         0.013644   
    124. D(H  20,C   4,C   3,H  17)    146.9071         0.013644   
    125. D(H  20,C   4,C   3,C   2)    -89.4752         0.013644   
    126. D(H  19,C   4,C   3,H  18)    151.3274         0.013644   
    127. D(H  19,C   4,C   3,H  17)    -91.4807         0.013644   
    128. D(H  22,C   5,C   4,H  20)   -153.8363         0.012246   
    129. D(H  22,C   5,C   4,H  19)     91.8637         0.012246   
    130. D(H  22,C   5,C   4,C   3)    -31.1886         0.012246   
    131. D(H  21,C   5,C   4,H  20)    -36.0915         0.012246   
    132. D(H  21,C   5,C   4,H  19)   -150.3915         0.012246   
    133. D(H  21,C   5,C   4,C   3)     86.5562         0.012246   
    134. D(C   6,C   5,C   4,H  20)     82.7575         0.012246   
    135. D(C   6,C   5,C   4,H  19)    -31.5425         0.012246   
    136. D(C   6,C   5,C   4,C   3)   -154.5948         0.012246   
    137. D(H  24,C   6,C   5,H  22)     32.6610         0.011615   
    138. D(H  24,C   6,C   5,H  21)    -88.6317         0.011615   
    139. D(H  24,C   6,C   5,C   4)    155.1294         0.011615   
    140. D(H  23,C   6,C   5,H  22)    -86.8780         0.011615   
    141. D(H  23,C   6,C   5,H  21)    151.8294         0.011615   
    142. D(H  23,C   6,C   5,C   4)     35.5904         0.011615   
    143. D(C   7,C   6,C   5,H  22)    154.8801         0.011615   
    144. D(C   7,C   6,C   5,H  21)     33.5874         0.011615   
    145. D(C   7,C   6,C   5,C   4)    -82.6515         0.011615   
    146. D(H  26,C   7,C   6,H  23)   -162.4723         0.013577   
    147. D(H  26,C   7,C   6,C   5)    -45.5095         0.013577   
    148. D(H  25,C   7,C   6,H  24)   -171.9487         0.013577   
    149. D(H  25,C   7,C   6,H  23)    -48.0825         0.013577   
    150. D(H  25,C   7,C   6,C   5)     68.8803         0.013577   
    151. D(C   8,C   7,C   6,H  24)    -43.7569         0.013577   
    152. D(C   8,C   7,C   6,H  23)     80.1093         0.013577   
    153. D(H  26,C   7,C   6,H  24)     73.6615         0.013577   
    154. D(C   8,C   7,C   6,C   5)   -162.9279         0.013577   
    155. D(H  28,C   8,C   7,H  26)     48.2004         0.013833   
    156. D(H  28,C   8,C   7,C   6)    165.8195         0.013833   
    157. D(H  27,C   8,C   7,H  26)    -73.3919         0.013833   
    158. D(H  27,C   8,C   7,H  25)    169.1150         0.013833   
    159. D(H  27,C   8,C   7,C   6)     44.2272         0.013833   
    160. D(C   9,C   8,C   7,H  26)    166.3360         0.013833   
    161. D(H  28,C   8,C   7,H  25)    -69.2928         0.013833   
    162. D(C   9,C   8,C   7,H  25)     48.8428         0.013833   
    163. D(C   9,C   8,C   7,C   6)    -76.0449         0.013833   
    164. D(H  31,C   9,C   8,H  28)     64.1374         0.013380   
    165. D(H  31,C   9,C   8,H  27)   -174.2264         0.013380   
    166. D(H  31,C   9,C   8,C   7)    -53.9660         0.013380   
    167. D(H  30,C   9,C   8,H  28)    -50.2690         0.013380   
    168. D(H  30,C   9,C   8,H  27)     71.3673         0.013380   
    169. D(H  30,C   9,C   8,C   7)   -168.3723         0.013380   
    170. D(H  29,C   9,C   8,H  28)   -165.7787         0.013380   
    171. D(H  29,C   9,C   8,H  27)    -44.1424         0.013380   
    172. D(H  29,C   9,C   8,C   7)     76.1179         0.013380   
    -----------------------------------------------------------------

Number of atoms                         .... 32
Number of degrees of freedom            .... 172

Time needed for optimization step       :     1.57 sec

         *************************************************************
         *                GEOMETRY OPTIMIZATION CYCLE   1            *
         *************************************************************
---------------------------------
CARTESIAN COORDINATES (ANGSTROEM)
---------------------------------
  C      4.147282    1.069465   -0.045593
  C      3.786907   -0.402858    0.116183
  C      2.781798   -0.768101   -0.943066
  C      1.606868   -1.504725   -0.327974
  C      0.434331   -0.599982   -0.082196
  C     -0.835251   -1.423727   -0.178820
  C     -1.974414   -0.487395   -0.563887
  C     -2.461376    0.178014    0.691492
  C     -3.815360    0.807131    0.553639
  C     -3.802507    2.106287   -0.204033
  H      3.997235    1.412230   -1.082156
  H      5.200097    1.271969    0.224309
  H      3.519829    1.670499    0.652175
  H      3.408534   -0.576422    1.148063
  H      4.727436   -0.976938    0.036965
  H      3.285435   -1.494025   -1.629384
  H      2.443296    0.106254   -1.520692
  H      1.291280   -2.359691   -0.974228
  H      1.982360   -1.955041    0.612636
  H      0.340536    0.215343   -0.814962
  H      0.460445   -0.121665    0.922878
  H     -1.009219   -1.857728    0.830069
  H     -0.711756   -2.250280   -0.896520
  H     -1.566892    0.271795   -1.253305
  H     -2.761118   -1.090680   -1.066686
  H     -1.674674    0.863792    1.042821
  H     -2.557496   -0.621637    1.468908
  H     -4.468639    0.103362    0.019030
  H     -4.180819    1.031507    1.587546
  H     -3.699414    1.970539   -1.298306
  H     -4.810940    2.567662   -0.049146
  H     -3.083791    2.845045    0.212854

----------------------------
CARTESIAN COORDINATES (A.U.)
----------------------------
  NO LB      ZA    FRAG     MASS         X           Y           Z
   0 C     6.0000    0    12.011    7.837227    2.020996   -0.086158
   1 C     6.0000    0    12.011    7.156217   -0.761291    0.219554
   2 C     6.0000    0    12.011    5.256836   -1.451501   -1.782136
   3 C     6.0000    0    12.011    3.036540   -2.843518   -0.619781
   4 C     6.0000    0    12.011    0.820767   -1.133802   -0.155328
   5 C     6.0000    0    12.011   -1.578396   -2.690454   -0.337921
   6 C     6.0000    0    12.011   -3.731102   -0.921043   -1.065592
   7 C     6.0000    0    12.011   -4.651327    0.336398    1.306731
   8 C     6.0000    0    12.011   -7.209986    1.525257    1.046226
   9 C     6.0000    0    12.011   -7.185697    3.980306   -0.385566
  10 H     1.0000    0     1.008    7.553679    2.668728   -2.044978
  11 H     1.0000    0     1.008    9.826759    2.403673    0.423883
  12 H     1.0000    0     1.008    6.651513    3.156786    1.232432
  13 H     1.0000    0     1.008    6.441196   -1.089280    2.169525
  14 H     1.0000    0     1.008    8.933559   -1.846145    0.069854
  15 H     1.0000    0     1.008    6.208572   -2.823298   -3.079090
  16 H     1.0000    0     1.008    4.617160    0.200791   -2.873691
  17 H     1.0000    0     1.008    2.440166   -4.459170   -1.841024
  18 H     1.0000    0     1.008    3.746117   -3.694492    1.157714
  19 H     1.0000    0     1.008    0.643520    0.406939   -1.540055
  20 H     1.0000    0     1.008    0.870115   -0.229914    1.743987
  21 H     1.0000    0     1.008   -1.907148   -3.510597    1.568603
  22 H     1.0000    0     1.008   -1.345024   -4.252413   -1.694177
  23 H     1.0000    0     1.008   -2.960997    0.513618   -2.368403
  24 H     1.0000    0     1.008   -5.217757   -2.061086   -2.015744
  25 H     1.0000    0     1.008   -3.164675    1.632330    1.970646
  26 H     1.0000    0     1.008   -4.832967   -1.174724    2.775834
  27 H     1.0000    0     1.008   -8.444504    0.195326    0.035961
  28 H     1.0000    0     1.008   -7.900603    1.949266    3.000027
  29 H     1.0000    0     1.008   -6.990879    3.723779   -2.453443
  30 H     1.0000    0     1.008   -9.091359    4.852178   -0.092872
  31 H     1.0000    0     1.008   -5.827520    5.376356    0.402236

--------------------------------
INTERNAL COORDINATES (ANGSTROEM)
--------------------------------
 C      0   0   0     0.000000000000     0.00000000     0.00000000
 C      1   0   0     1.524393856958     0.00000000     0.00000000
 C      2   1   0     1.505209286090   108.51435479     0.00000000
 C      3   2   1     1.517041064289   110.46672857   228.89436233
 C      4   3   2     1.501269375463   112.25005864    98.46821694
 C      5   4   3     1.516486227146   108.42606166   150.81680336
 C      6   5   4     1.524036269018   107.94721933   205.40521118
 C      7   6   5     1.501957908986   107.65860904   277.34849034
 C      8   7   6     1.499354635019   113.69243573   197.07209388
 C      9   8   7     1.504007437325   113.64332861   283.95512375
 H      1   2   3     1.102027586044   111.59476629   334.26470234
 H      1   2   3     1.105565187515   112.09408422   213.49526977
 H      1   2   3     1.114369471131   108.74552152    95.97578612
 H      2   1   3     1.112684557107   109.23642705   236.64079574
 H      2   1   3     1.104734419562   107.03927429   122.34010222
 H      3   2   1     1.118770878540   106.77104426   113.60423184
 H      3   2   1     1.101241147935   112.43991505   353.64628285
 H      4   3   2     1.117231793056   110.84378464   221.38114825
 H      4   3   2     1.108388882126   106.19939196   336.07568455
 H      5   4   3     1.100226507773   113.83751935    32.13697803
 H      5   4   3     1.113392490976   112.85304529   270.52481394
 H      6   5   4     1.111970659391   106.56940410    86.55615973
 H      6   5   4     1.101605268158   110.80727020   328.81140898
 H      7   6   5     1.103512942973   107.72757849    35.59043552
 H      7   6   5     1.111603710520   108.05004534   155.12939698
 H      8   7   6     1.101191885336   108.11598381    68.88030801
 H      8   7   6     1.119400023788   106.96798099   314.49050233
 H      9   8   7     1.099031864908   108.22914502    44.22724190
 H      9   8   7     1.119316110268   107.09941094   165.81946922
 H     10   9   8     1.107469676642   113.12146056    76.11793378
 H     10   9   8     1.119729426640   106.17305612   191.62767020
 H     10   9   8     1.111805217648   112.99142688   306.03399785

---------------------------
INTERNAL COORDINATES (A.U.)
---------------------------
 C      0   0   0     0.000000000000     0.00000000     0.00000000
 C      1   0   0     2.880686909882     0.00000000     0.00000000
 C      2   1   0     2.844433324945   108.51435479     0.00000000
 C      3   2   1     2.866792145419   110.46672857   228.89436233
 C      4   3   2     2.836987972867   112.25005864    98.46821694
 C      5   4   3     2.865743655170   108.42606166   150.81680336
 C      6   5   4     2.880011166607   107.94721933   205.40521118
 C      7   6   5     2.838289112661   107.65860904   277.34849034
 C      8   7   6     2.833369637812   113.69243573   197.07209388
 C      9   8   7     2.842162159925   113.64332861   283.95512375
 H      1   2   3     2.082530329650   111.59476629   334.26470234
 H      1   2   3     2.089215427601   112.09408422   213.49526977
 H      1   2   3     2.105853112440   108.74552152    95.97578612
 H      2   1   3     2.102669086376   109.23642705   236.64079574
 H      2   1   3     2.087645503689   107.03927429   122.34010222
 H      3   2   1     2.114170567047   106.77104426   113.60423184
 H      3   2   1     2.081044177002   112.43991505   353.64628285
 H      4   3   2     2.111262116986   110.84378464   221.38114825
 H      4   3   2     2.094551437101   106.19939196   336.07568455
 H      5   4   3     2.079126784971   113.83751935    32.13697803
 H      5   4   3     2.104006887508   112.85304529   270.52481394
 H      6   5   4     2.101320015204   106.56940410    86.55615973
 H      6   5   4     2.081732264504   110.80727020   328.81140898
 H      7   6   5     2.085337247456   107.72757849    35.59043552
 H      7   6   5     2.100626582334   108.05004534   155.12939698
 H      8   7   6     2.080951084181   108.11598381    68.88030801
 H      8   7   6     2.115359479265   106.96798099   314.49050233
 H      9   8   7     2.076869237129   108.22914502    44.22724190
 H      9   8   7     2.115200905693   107.09941094   165.81946922
 H     10   9   8     2.092814390476   113.12146056    76.11793378
 H     10   9   8     2.115981960442   106.17305612   191.62767020
 H     10   9   8     2.101007375619   112.99142688   306.03399785

---------------------
BASIS SET INFORMATION
---------------------
There are 2 groups of distinct atoms

 Group   1 Type C   : 7s4p1d contracted to 3s2p1d pattern {511/31/1}
 Group   2 Type H   : 4s contracted to 2s pattern {31}

Atom   0C    basis set group =>   1
Atom   1C    basis set group =>   1
Atom   2C    basis set group =>   1
Atom   3C    basis set group =>   1
Atom   4C    basis set group =>   1
Atom   5C    basis set group =>   1
Atom   6C    basis set group =>   1
Atom   7C    basis set group =>   1
Atom   8C    basis set group =>   1
Atom   9C    basis set group =>   1
Atom  10H    basis set group =>   2
Atom  11H    basis set group =>   2
Atom  12H    basis set group =>   2
Atom  13H    basis set group =>   2
Atom  14H    basis set group =>   2
Atom  15H    basis set group =>   2
Atom  16H    basis set group =>   2
Atom  17H    basis set group =>   2
Atom  18H    basis set group =>   2
Atom  19H    basis set group =>   2
Atom  20H    basis set group =>   2
Atom  21H    basis set group =>   2
Atom  22H    basis set group =>   2
Atom  23H    basis set group =>   2
Atom  24H    basis set group =>   2
Atom  25H    basis set group =>   2
Atom  26H    basis set group =>   2
Atom  27H    basis set group =>   2
Atom  28H    basis set group =>   2
Atom  29H    basis set group =>   2
Atom  30H    basis set group =>   2
Atom  31H    basis set group =>   2
---------------------------------
AUXILIARY/J BASIS SET INFORMATION
---------------------------------
There are 2 groups of distinct atoms

 Group   1 Type C   : 12s5p4d2f1g contracted to 6s4p3d1f1g pattern {711111/2111/211/2/1}
 Group   2 Type H   : 5s2p1d contracted to 3s1p1d pattern {311/2/1}

Atom   0C    basis set group =>   1
Atom   1C    basis set group =>   1
Atom   2C    basis set group =>   1
Atom   3C    basis set group =>   1
Atom   4C    basis set group =>   1
Atom   5C    basis set group =>   1
Atom   6C    basis set group =>   1
Atom   7C    basis set group =>   1
Atom   8C    basis set group =>   1
Atom   9C    basis set group =>   1
Atom  10H    basis set group =>   2
Atom  11H    basis set group =>   2
Atom  12H    basis set group =>   2
Atom  13H    basis set group =>   2
Atom  14H    basis set group =>   2
Atom  15H    basis set group =>   2
Atom  16H    basis set group =>   2
Atom  17H    basis set group =>   2
Atom  18H    basis set group =>   2
Atom  19H    basis set group =>   2
Atom  20H    basis set group =>   2
Atom  21H    basis set group =>   2
Atom  22H    basis set group =>   2
Atom  23H    basis set group =>   2
Atom  24H    basis set group =>   2
Atom  25H    basis set group =>   2
Atom  26H    basis set group =>   2
Atom  27H    basis set group =>   2
Atom  28H    basis set group =>   2
Atom  29H    basis set group =>   2
Atom  30H    basis set group =>   2
Atom  31H    basis set group =>   2
------------------------------------------------------------------------------
                           ORCA GTO INTEGRAL CALCULATION
------------------------------------------------------------------------------

                         BASIS SET STATISTICS AND STARTUP INFO

 # of primitive gaussian shells          ...  208
 # of primitive gaussian functions       ...  328
 # of contracted shells                  ...  104
 # of contracted basis functions         ...  184
 Highest angular momentum                ...    2
 Maximum contraction depth               ...    5
 Integral package used                   ... LIBINT
 Integral threshhold            Thresh   ...  1.000e-12
 Primitive cut-off              TCut     ...  1.000e-14


------------------------------ INTEGRAL EVALUATION ----------------------------


 * One electron integrals 
 Pre-screening matrix                    ... done
 Shell pair data                         ... done (   0.002 sec)

-------------------------------------------------------------------------------
                                 ORCA SCF
-------------------------------------------------------------------------------

------------
SCF SETTINGS
------------
Hamiltonian:
 Density Functional     Method          .... DFT(GTOs)
 Exchange Functional    Exchange        .... B88
   X-Alpha parameter    XAlpha          ....  0.666667
   Becke's b parameter  XBeta           ....  0.004200
 Correlation Functional Correlation     .... LYP
 LDA part of GGA corr.  LDAOpt          .... VWN-5
 Gradients option       PostSCFGGA      .... off
 Hybrid DFT is turned on
   Fraction HF Exchange ScalHFX         ....  0.200000
   Scaling of DF-GGA-X  ScalDFX         ....  0.720000
   Scaling of DF-GGA-C  ScalDFC         ....  0.810000
   Scaling of DF-LDA-C  ScalLDAC        ....  1.000000
   Perturbative correction              ....  0.000000
   Density functional embedding theory  .... OFF
   NL short-range parameter             ....  4.800000


General Settings:
 Integral files         IntName         .... orca5
 Hartree-Fock type      HFTyp           .... UHF
 Total Charge           Charge          ....    0
 Multiplicity           Mult            ....    1
 Number of Electrons    NEL             ....   82
 Basis Dimension        Dim             ....  184
 Nuclear Repulsion      ENuc            ....    547.0988015325 Eh

Convergence Acceleration:
 DIIS                   CNVDIIS         .... on
   Start iteration      DIISMaxIt       ....    12
   Startup error        DIISStart       ....  0.200000
   # of expansion vecs  DIISMaxEq       ....     5
   Bias factor          DIISBfac        ....   1.050
   Max. coefficient     DIISMaxC        ....  10.000
 Newton-Raphson         CNVNR           .... off
 SOSCF                  CNVSOSCF        .... off
 Level Shifting         CNVShift        .... on
   Level shift para.    LevelShift      ....    0.2500
   Turn off err/grad.   ShiftErr        ....    0.0010
 Zerner damping         CNVZerner       .... off
 Static damping         CNVDamp         .... on
   Fraction old density DampFac         ....    0.7000
   Max. Damping (<1)    DampMax         ....    0.9800
   Min. Damping (>=0)   DampMin         ....    0.0000
   Turn off err/grad.   DampErr         ....    0.1000
 Fernandez-Rico         CNVRico         .... off

SCF Procedure:
 Maximum # iterations   MaxIter         ....   500
 SCF integral mode      SCFMode         .... Direct
   Integral package                     .... LIBINT
 Reset frequency        DirectResetFreq ....    20
 Integral Threshold     Thresh          ....  1.000e-12 Eh
 Primitive CutOff       TCut            ....  1.000e-14 Eh

Convergence Tolerance:
 Convergence Check Mode ConvCheckMode   .... Total+1el-Energy
 Convergence forced     ConvForced      .... 0
 Energy Change          TolE            ....  1.000e-09 Eh
 1-El. energy change                    ....  1.000e-06 Eh
 DIIS Error             TolErr          ....  1.000e-08


Diagonalization of the overlap matrix:
Smallest eigenvalue                        ... 1.175e-03
Time for diagonalization                   ...    0.004 sec
Threshold for overlap eigenvalues          ... 1.000e-08
Number of eigenvalues below threshold      ... 0
Time for construction of square roots      ...    3.910 sec
Total time needed                          ...    3.915 sec

-------------------
DFT GRID GENERATION
-------------------

General Integration Accuracy     IntAcc      ...  4.340
Radial Grid Type                 RadialGrid  ... Gauss-Chebyshev
Angular Grid (max. acc.)         AngularGrid ... Lebedev-110
Angular grid pruning method      GridPruning ... 3 (G Style)
Weight generation scheme         WeightScheme... Becke
Basis function cutoff            BFCut       ...    1.0000e-12
Integration weight cutoff        WCut        ...    1.0000e-14
Grids for H and He will be reduced by one unit

# of grid points (after initial pruning)     ...  34028 (   0.0 sec)
# of grid points (after weights+screening)   ...  30571 (   0.2 sec)
nearest neighbour list constructed           ...    0.0 sec
Grid point re-assignment to atoms done       ...    0.0 sec
Grid point division into batches done        ...    0.0 sec
Reduced shell lists constructed in    0.2 sec

Total number of grid points                  ...    30571
Total number of batches                      ...      495
Average number of points per batch           ...       61
Average number of grid points per atom       ...      955
Average number of shells per batch           ...    68.14 (65.52%)
Average number of basis functions per batch  ...   116.22 (63.16%)
Average number of large shells per batch     ...    50.26 (73.76%)
Average number of large basis fcns per batch ...    86.41 (74.35%)
Maximum spatial batch extension              ...  19.49, 23.70, 23.87 au
Average spatial batch extension              ...   3.14,  3.54,  3.50 au

Time for grid setup =    5.489 sec

------------------------------
INITIAL GUESS: MODEL POTENTIAL
------------------------------
Loading Hartree-Fock densities                     ... done
Calculating cut-offs                               ... done
Setting up the integral package                    ... done
Initializing the effective Hamiltonian             ... done
Starting the Coulomb interaction                   ... done (   0.2 sec)
Reading the grid                                   ... done
Mapping shells                                     ... done
Starting the XC term evaluation                    ... done (   0.3 sec)
  promolecular density results
     # of electrons  =     82.010868642
     EX              =    -57.995446882
     EC              =     -2.611091841
     EX+EC           =    -60.606538724
Transforming the Hamiltonian                       ... done (   0.0 sec)
Diagonalizing the Hamiltonian                      ... done (   0.0 sec)
Back transforming the eigenvectors                 ... done (   0.0 sec)
Now organizing SCF variables                       ... done
                      ------------------
                      INITIAL GUESS DONE (   6.2 sec)
                      ------------------
--------------
SCF ITERATIONS
--------------
ITER       Energy         Delta-E        Max-DP      RMS-DP      [F,P]     Damp
               ***  Starting incremental Fock matrix formation  ***
  0   -393.2615187219   0.000000000000 0.04246350  0.00143648  0.1740985 0.7000
  1   -393.4468964054  -0.185377683462 0.02606798  0.00102147  0.0900399 0.7000
                               ***Turning on DIIS***
  2   -393.5203946389  -0.073498233533 0.03572088  0.00167371  0.0332153 0.0000
  3   -393.6200397790  -0.099645140044 0.01744404  0.00069278  0.0495562 0.0000
  4   -393.6529859784  -0.032946199428 0.00352743  0.00021323  0.0106531 0.0000
  5   -393.6546149729  -0.001628994534 0.00124831  0.00007250  0.0020690 0.0000
  6   -393.6547105638  -0.000095590852 0.00065004  0.00003764  0.0006912 0.0000
  7   -393.6547180718  -0.000007508059 0.00026174  0.00000430  0.0004179 0.0000
  8   -393.6547187126  -0.000000640727 0.00004610  0.00000129  0.0000733 0.0000
  9   -393.6547187503  -0.000000037716 0.00001934  0.00000045  0.0000241 0.0000
 10   -393.6547187535  -0.000000003239 0.00000805  0.00000016  0.0000151 0.0000
 11   -393.6547187543  -0.000000000819 0.00000125  0.00000006  0.0000027 0.0000
 12   -393.6547187544  -0.000000000060 0.00000040  0.00000001  0.0000006 0.0000
 13   -393.6547187543   0.000000000042 0.00000016  0.00000000  0.0000003 0.0000
 14   -393.6547187544  -0.000000000035 0.00000005  0.00000000  0.0000001 0.0000
                 **** Energy Check signals convergence ****

 Fermi smearing  (ALPHA): E(HOMO(Eh)) = -0.277722 MUE = -0.111231 gap=   9.061 eV
 Fermi smearing   (BETA): E(HOMO(Eh)) = -0.277722 MUE = -0.111231 gap=   9.061 eV

N_FOD(alpha) =  0.000000
 N_FOD(beta) =  0.000000
       N_FOD =  0.000000

               *****************************************************
               *                     SUCCESS                       *
               *           SCF CONVERGED AFTER  15 CYCLES          *
               *****************************************************

Setting up the final grid:

General Integration Accuracy     IntAcc      ...  4.670
Radial Grid Type                 RadialGrid  ... Gauss-Chebyshev
Angular Grid (max. acc.)         AngularGrid ... Lebedev-302
Angular grid pruning method      GridPruning ... 3 (G Style)
Weight generation scheme         WeightScheme... Becke
Basis function cutoff            BFCut       ...    1.0000e-12
Integration weight cutoff        WCut        ...    1.0000e-14
Grids for H and He will be reduced by one unit

# of grid points (after initial pruning)     ... 136788 (   0.1 sec)
# of grid points (after weights+screening)   ... 120558 (   0.7 sec)
nearest neighbour list constructed           ...    0.0 sec
Grid point re-assignment to atoms done       ...    0.0 sec
Grid point division into batches done        ...    0.3 sec
Reduced shell lists constructed in    1.0 sec

Total number of grid points                  ...   120558
Total number of batches                      ...     1898
Average number of points per batch           ...       63
Average number of grid points per atom       ...     3767
Average number of shells per batch           ...    63.29 (60.85%)
Average number of basis functions per batch  ...   107.47 (58.41%)
Average number of large shells per batch     ...    46.07 (72.79%)
Average number of large basis fcns per batch ...    78.87 (73.39%)
Maximum spatial batch extension              ...  19.90, 20.20, 20.27 au
Average spatial batch extension              ...   2.12,  2.27,  2.28 au

Final grid set up in    2.7 sec
Final integration                            ... done (   8.2 sec)
Change in XC energy                          ...     0.001446934
Integrated number of electrons               ...    81.999898307
Previous integrated no of electrons          ...    82.010690854

----------------
TOTAL SCF ENERGY
----------------

Total Energy       :         -393.65327182 Eh          -10711.85011 eV

Components:
Nuclear Repulsion  :          547.09880153 Eh           14887.31525 eV
Electronic Energy  :         -940.75207335 Eh          -25599.16535 eV
One Electron Energy:        -1613.14206552 Eh          -43895.82722 eV
Two Electron Energy:          672.38999216 Eh           18296.66187 eV

Virial components:
Potential Energy   :         -783.45199238 Eh          -21318.81254 eV
Kinetic Energy     :          389.79872056 Eh           10606.96243 eV
Virial Ratio       :            2.00988857


DFT components:
N(Alpha)           :       40.999949153502 electrons
N(Beta)            :       40.999949153502 electrons
N(Total)           :       81.999898307004 electrons
E(X)               :      -47.204434225325 Eh       
E(C)               :       -3.090957015572 Eh       
E(XC)              :      -50.295391240897 Eh       
DFET-embed. en.    :        0.000000000000 Eh       

---------------
SCF CONVERGENCE
---------------

  Last Energy change         ...   -4.7805e-11  Tolerance :   1.0000e-09
  Last MAX-Density change    ...    4.1862e-09  Tolerance :   1.0000e-08
  Last RMS-Density change    ...    1.7629e-10  Tolerance :   1.0000e-09
  Last DIIS Error            ...    7.6431e-09  Tolerance :   1.0000e-08

             **** THE GBW FILE WAS UPDATED (orca5.gbw) ****
             **** DENSITY FILE WAS UPDATED (orca5.scfp) ****
             **** ENERGY FILE WAS UPDATED (orca5.en.tmp) ****
             **** THE GBW FILE WAS UPDATED (orca5.gbw) ****
             **** DENSITY FILE WAS UPDATED (orca5.scfp) ****
----------------
ORBITAL ENERGIES
----------------
                 SPIN UP ORBITALS
  NO   OCC          E(Eh)            E(eV) 
   0   1.0000     -10.167002      -276.6582 
   1   1.0000     -10.165373      -276.6139 
   2   1.0000     -10.164736      -276.5965 
   3   1.0000     -10.163211      -276.5550 
   4   1.0000     -10.163078      -276.5514 
   5   1.0000     -10.162627      -276.5391 
   6   1.0000     -10.162322      -276.5309 
   7   1.0000     -10.162124      -276.5255 
   8   1.0000     -10.160848      -276.4907 
   9   1.0000     -10.160445      -276.4798 
  10   1.0000      -0.814654       -22.1679 
  11   1.0000      -0.794069       -21.6077 
  12   1.0000      -0.763876       -20.7861 
  13   1.0000      -0.723121       -19.6771 
  14   1.0000      -0.677990       -18.4491 
  15   1.0000      -0.635142       -17.2831 
  16   1.0000      -0.591217       -16.0878 
  17   1.0000      -0.573982       -15.6188 
  18   1.0000      -0.563559       -15.3352 
  19   1.0000      -0.552080       -15.0228 
  20   1.0000      -0.476885       -12.9767 
  21   1.0000      -0.459722       -12.5097 
  22   1.0000      -0.456557       -12.4235 
  23   1.0000      -0.443074       -12.0566 
  24   1.0000      -0.434765       -11.8306 
  25   1.0000      -0.420109       -11.4317 
  26   1.0000      -0.406238       -11.0543 
  27   1.0000      -0.396202       -10.7812 
  28   1.0000      -0.381847       -10.3906 
  29   1.0000      -0.371349       -10.1049 
  30   1.0000      -0.368617       -10.0306 
  31   1.0000      -0.349494        -9.5102 
  32   1.0000      -0.346652        -9.4329 
  33   1.0000      -0.340403        -9.2628 
  34   1.0000      -0.334649        -9.1063 
  35   1.0000      -0.327673        -8.9164 
  36   1.0000      -0.316181        -8.6037 
  37   1.0000      -0.310503        -8.4492 
  38   1.0000      -0.307330        -8.3629 
  39   1.0000      -0.297578        -8.0975 
  40   1.0000      -0.277722        -7.5572 
  41   0.0000       0.055259         1.5037 
  42   0.0000       0.060895         1.6570 
  43   0.0000       0.065882         1.7927 
  44   0.0000       0.070948         1.9306 
  45   0.0000       0.081497         2.2176 
  46   0.0000       0.089072         2.4238 
  47   0.0000       0.092295         2.5115 
  48   0.0000       0.107582         2.9275 
  49   0.0000       0.113969         3.1013 
  50   0.0000       0.119939         3.2637 
  51   0.0000       0.126679         3.4471 
  52   0.0000       0.138081         3.7574 
  53   0.0000       0.142861         3.8874 
  54   0.0000       0.150098         4.0844 
  55   0.0000       0.153200         4.1688 
  56   0.0000       0.158196         4.3047 
  57   0.0000       0.164347         4.4721 
  58   0.0000       0.171912         4.6780 
  59   0.0000       0.189998         5.1701 
  60   0.0000       0.195996         5.3333 
  61   0.0000       0.205968         5.6047 
  62   0.0000       0.209723         5.7069 
  63   0.0000       0.235572         6.4102 
  64   0.0000       0.241508         6.5718 
  65   0.0000       0.251586         6.8460 
  66   0.0000       0.263279         7.1642 
  67   0.0000       0.266698         7.2572 
  68   0.0000       0.283797         7.7225 
  69   0.0000       0.287903         7.8343 
  70   0.0000       0.296314         8.0631 
  71   0.0000       0.311190         8.4679 
  72   0.0000       0.408080        11.1044 
  73   0.0000       0.410858        11.1800 
  74   0.0000       0.430340        11.7101 
  75   0.0000       0.437175        11.8961 
  76   0.0000       0.443437        12.0665 
  77   0.0000       0.456268        12.4157 
  78   0.0000       0.471459        12.8290 
  79   0.0000       0.479206        13.0399 
  80   0.0000       0.501893        13.6572 
  81   0.0000       0.506503        13.7826 
  82   0.0000       0.518964        14.1217 
  83   0.0000       0.550996        14.9934 
  84   0.0000       0.564355        15.3569 
  85   0.0000       0.582019        15.8376 
  86   0.0000       0.596231        16.2243 
  87   0.0000       0.632402        17.2085 
  88   0.0000       0.638494        17.3743 
  89   0.0000       0.640964        17.4415 
  90   0.0000       0.644704        17.5433 
  91   0.0000       0.655731        17.8434 
  92   0.0000       0.661088        17.9891 
  93   0.0000       0.661980        18.0134 
  94   0.0000       0.665071        18.0975 
  95   0.0000       0.669897        18.2288 
  96   0.0000       0.679332        18.4856 
  97   0.0000       0.687195        18.6995 
  98   0.0000       0.692599        18.8466 
  99   0.0000       0.694300        18.8929 
 100   0.0000       0.699355        19.0304 
 101   0.0000       0.700347        19.0574 
 102   0.0000       0.705825        19.2065 
 103   0.0000       0.707363        19.2483 
 104   0.0000       0.710316        19.3287 
 105   0.0000       0.714169        19.4335 
 106   0.0000       0.721254        19.6263 
 107   0.0000       0.726580        19.7713 
 108   0.0000       0.729000        19.8371 
 109   0.0000       0.733190        19.9511 
 110   0.0000       0.741659        20.1816 
 111   0.0000       0.744320        20.2540 
 112   0.0000       0.747045        20.3281 
 113   0.0000       0.753548        20.5051 
 114   0.0000       0.760375        20.6909 
 115   0.0000       0.764527        20.8038 
 116   0.0000       0.777439        21.1552 
 117   0.0000       0.780724        21.2446 
 118   0.0000       0.789049        21.4711 
 119   0.0000       0.800100        21.7718 
 120   0.0000       0.830656        22.6033 
 121   0.0000       0.846670        23.0391 
 122   0.0000       0.872858        23.7517 
 123   0.0000       0.907058        24.6823 
 124   0.0000       0.953637        25.9498 
 125   0.0000       1.005063        27.3492 
 126   0.0000       1.021081        27.7850 
 127   0.0000       1.049587        28.5607 
 128   0.0000       1.080514        29.4023 
 129   0.0000       1.117143        30.3990 
 130   0.0000       1.150766        31.3139 
 131   0.0000       1.169187        31.8152 
 132   0.0000       1.188345        32.3365 
 133   0.0000       1.250014        34.0146 
 134   0.0000       1.373962        37.3874 
 135   0.0000       1.413145        38.4536 
 136   0.0000       1.523744        41.4632 
 137   0.0000       1.558387        42.4059 
 138   0.0000       1.597301        43.4648 
 139   0.0000       1.650780        44.9200 
 140   0.0000       1.685677        45.8696 
 141   0.0000       1.735108        47.2147 
 142   0.0000       1.795103        48.8472 
 143   0.0000       1.797709        48.9182 
 144   0.0000       1.830815        49.8190 
 145   0.0000       1.849303        50.3221 
 146   0.0000       1.858421        50.5702 
 147   0.0000       1.872943        50.9654 
 148   0.0000       1.898326        51.6561 
 149   0.0000       1.901372        51.7390 
 150   0.0000       1.936941        52.7068 
 151   0.0000       1.943650        52.8894 
 152   0.0000       1.947790        53.0021 
 153   0.0000       1.967339        53.5340 
 154   0.0000       1.999738        54.4156 
 155   0.0000       2.010894        54.7192 
 156   0.0000       2.028064        55.1864 
 157   0.0000       2.047576        55.7174 
 158   0.0000       2.076014        56.4912 
 159   0.0000       2.085989        56.7626 
 160   0.0000       2.120603        57.7045 
 161   0.0000       2.152279        58.5665 
 162   0.0000       2.169296        59.0295 
 163   0.0000       2.202425        59.9310 
 164   0.0000       2.212882        60.2156 
 165   0.0000       2.255867        61.3853 
 166   0.0000       2.271620        61.8139 
 167   0.0000       2.301923        62.6385 
 168   0.0000       2.319197        63.1086 
 169   0.0000       2.337540        63.6077 
 170   0.0000       2.352810        64.0232 
 171   0.0000       2.407356        65.5075 
 172   0.0000       2.423317        65.9418 
 173   0.0000       2.448198        66.6189 
 174   0.0000       2.483975        67.5924 
 175   0.0000       2.493182        67.8429 
 176   0.0000       2.527711        68.7825 
 177   0.0000       2.607334        70.9492 
 178   0.0000       2.622330        71.3572 
 179   0.0000       2.664026        72.4918 
 180   0.0000       2.709963        73.7418 
 181   0.0000       2.730719        74.3066 
 182   0.0000       2.779228        75.6266 
 183   0.0000       2.853049        77.6354 

                 SPIN DOWN ORBITALS
  NO   OCC          E(Eh)            E(eV) 
   0   1.0000     -10.167002      -276.6582 
   1   1.0000     -10.165373      -276.6139 
   2   1.0000     -10.164736      -276.5965 
   3   1.0000     -10.163211      -276.5550 
   4   1.0000     -10.163078      -276.5514 
   5   1.0000     -10.162627      -276.5391 
   6   1.0000     -10.162322      -276.5309 
   7   1.0000     -10.162124      -276.5255 
   8   1.0000     -10.160848      -276.4907 
   9   1.0000     -10.160445      -276.4798 
  10   1.0000      -0.814654       -22.1679 
  11   1.0000      -0.794069       -21.6077 
  12   1.0000      -0.763876       -20.7861 
  13   1.0000      -0.723121       -19.6771 
  14   1.0000      -0.677990       -18.4491 
  15   1.0000      -0.635142       -17.2831 
  16   1.0000      -0.591217       -16.0878 
  17   1.0000      -0.573982       -15.6188 
  18   1.0000      -0.563559       -15.3352 
  19   1.0000      -0.552080       -15.0228 
  20   1.0000      -0.476885       -12.9767 
  21   1.0000      -0.459722       -12.5097 
  22   1.0000      -0.456557       -12.4235 
  23   1.0000      -0.443074       -12.0566 
  24   1.0000      -0.434765       -11.8306 
  25   1.0000      -0.420109       -11.4317 
  26   1.0000      -0.406238       -11.0543 
  27   1.0000      -0.396202       -10.7812 
  28   1.0000      -0.381847       -10.3906 
  29   1.0000      -0.371349       -10.1049 
  30   1.0000      -0.368617       -10.0306 
  31   1.0000      -0.349494        -9.5102 
  32   1.0000      -0.346652        -9.4329 
  33   1.0000      -0.340403        -9.2628 
  34   1.0000      -0.334649        -9.1063 
  35   1.0000      -0.327673        -8.9164 
  36   1.0000      -0.316181        -8.6037 
  37   1.0000      -0.310503        -8.4492 
  38   1.0000      -0.307330        -8.3629 
  39   1.0000      -0.297578        -8.0975 
  40   1.0000      -0.277722        -7.5572 
  41   0.0000       0.055259         1.5037 
  42   0.0000       0.060895         1.6570 
  43   0.0000       0.065882         1.7927 
  44   0.0000       0.070948         1.9306 
  45   0.0000       0.081497         2.2176 
  46   0.0000       0.089072         2.4238 
  47   0.0000       0.092295         2.5115 
  48   0.0000       0.107582         2.9275 
  49   0.0000       0.113969         3.1013 
  50   0.0000       0.119939         3.2637 
  51   0.0000       0.126679         3.4471 
  52   0.0000       0.138081         3.7574 
  53   0.0000       0.142861         3.8874 
  54   0.0000       0.150098         4.0844 
  55   0.0000       0.153200         4.1688 
  56   0.0000       0.158196         4.3047 
  57   0.0000       0.164347         4.4721 
  58   0.0000       0.171912         4.6780 
  59   0.0000       0.189998         5.1701 
  60   0.0000       0.195996         5.3333 
  61   0.0000       0.205968         5.6047 
  62   0.0000       0.209723         5.7069 
  63   0.0000       0.235572         6.4102 
  64   0.0000       0.241508         6.5718 
  65   0.0000       0.251586         6.8460 
  66   0.0000       0.263279         7.1642 
  67   0.0000       0.266698         7.2572 
  68   0.0000       0.283797         7.7225 
  69   0.0000       0.287903         7.8343 
  70   0.0000       0.296314         8.0631 
  71   0.0000       0.311190         8.4679 
  72   0.0000       0.408080        11.1044 
  73   0.0000       0.410858        11.1800 
  74   0.0000       0.430340        11.7101 
  75   0.0000       0.437175        11.8961 
  76   0.0000       0.443437        12.0665 
  77   0.0000       0.456268        12.4157 
  78   0.0000       0.471459        12.8290 
  79   0.0000       0.479206        13.0399 
  80   0.0000       0.501893        13.6572 
  81   0.0000       0.506503        13.7826 
  82   0.0000       0.518964        14.1217 
  83   0.0000       0.550996        14.9934 
  84   0.0000       0.564355        15.3569 
  85   0.0000       0.582019        15.8376 
  86   0.0000       0.596231        16.2243 
  87   0.0000       0.632402        17.2085 
  88   0.0000       0.638494        17.3743 
  89   0.0000       0.640964        17.4415 
  90   0.0000       0.644704        17.5433 
  91   0.0000       0.655731        17.8434 
  92   0.0000       0.661088        17.9891 
  93   0.0000       0.661980        18.0134 
  94   0.0000       0.665071        18.0975 
  95   0.0000       0.669897        18.2288 
  96   0.0000       0.679332        18.4856 
  97   0.0000       0.687195        18.6995 
  98   0.0000       0.692599        18.8466 
  99   0.0000       0.694300        18.8929 
 100   0.0000       0.699355        19.0304 
 101   0.0000       0.700347        19.0574 
 102   0.0000       0.705825        19.2065 
 103   0.0000       0.707363        19.2483 
 104   0.0000       0.710316        19.3287 
 105   0.0000       0.714169        19.4335 
 106   0.0000       0.721254        19.6263 
 107   0.0000       0.726580        19.7713 
 108   0.0000       0.729000        19.8371 
 109   0.0000       0.733190        19.9511 
 110   0.0000       0.741659        20.1816 
 111   0.0000       0.744320        20.2540 
 112   0.0000       0.747045        20.3281 
 113   0.0000       0.753548        20.5051 
 114   0.0000       0.760375        20.6909 
 115   0.0000       0.764527        20.8038 
 116   0.0000       0.777439        21.1552 
 117   0.0000       0.780724        21.2446 
 118   0.0000       0.789049        21.4711 
 119   0.0000       0.800100        21.7718 
 120   0.0000       0.830656        22.6033 
 121   0.0000       0.846670        23.0391 
 122   0.0000       0.872858        23.7517 
 123   0.0000       0.907058        24.6823 
 124   0.0000       0.953637        25.9498 
 125   0.0000       1.005063        27.3492 
 126   0.0000       1.021081        27.7850 
 127   0.0000       1.049587        28.5607 
 128   0.0000       1.080514        29.4023 
 129   0.0000       1.117143        30.3990 
 130   0.0000       1.150766        31.3139 
 131   0.0000       1.169187        31.8152 
 132   0.0000       1.188345        32.3365 
 133   0.0000       1.250014        34.0146 
 134   0.0000       1.373962        37.3874 
 135   0.0000       1.413145        38.4536 
 136   0.0000       1.523744        41.4632 
 137   0.0000       1.558387        42.4059 
 138   0.0000       1.597301        43.4648 
 139   0.0000       1.650780        44.9200 
 140   0.0000       1.685677        45.8696 
 141   0.0000       1.735108        47.2147 
 142   0.0000       1.795103        48.8472 
 143   0.0000       1.797709        48.9182 
 144   0.0000       1.830815        49.8190 
 145   0.0000       1.849303        50.3221 
 146   0.0000       1.858421        50.5702 
 147   0.0000       1.872943        50.9654 
 148   0.0000       1.898326        51.6561 
 149   0.0000       1.901372        51.7390 
 150   0.0000       1.936941        52.7068 
 151   0.0000       1.943650        52.8894 
 152   0.0000       1.947790        53.0021 
 153   0.0000       1.967339        53.5340 
 154   0.0000       1.999738        54.4156 
 155   0.0000       2.010894        54.7192 
 156   0.0000       2.028064        55.1864 
 157   0.0000       2.047576        55.7174 
 158   0.0000       2.076014        56.4912 
 159   0.0000       2.085989        56.7626 
 160   0.0000       2.120603        57.7045 
 161   0.0000       2.152279        58.5665 
 162   0.0000       2.169296        59.0295 
 163   0.0000       2.202425        59.9310 
 164   0.0000       2.212882        60.2156 
 165   0.0000       2.255867        61.3853 
 166   0.0000       2.271620        61.8139 
 167   0.0000       2.301923        62.6385 
 168   0.0000       2.319197        63.1086 
 169   0.0000       2.337540        63.6077 
 170   0.0000       2.352810        64.0232 
 171   0.0000       2.407356        65.5075 
 172   0.0000       2.423317        65.9418 
 173   0.0000       2.448198        66.6189 
 174   0.0000       2.483975        67.5924 
 175   0.0000       2.493182        67.8429 
 176   0.0000       2.527711        68.7825 
 177   0.0000       2.607334        70.9492 
 178   0.0000       2.622330        71.3572 
 179   0.0000       2.664026        72.4918 
 180   0.0000       2.709963        73.7418 
 181   0.0000       2.730719        74.3066 
 182   0.0000       2.779228        75.6266 
 183   0.0000       2.853049        77.6354 

                    ********************************
                    * MULLIKEN POPULATION ANALYSIS *
                    ********************************

------------------------------------------
FOD BASED MULLIKEN REDUCED ORBITAL CHARGES
------------------------------------------
  0 C s       :    -0.000000  s :    -0.000000
      pz      :     0.000000  p :     0.000000
      px      :     0.000000
      py      :     0.000000
      dz2     :     0.000000  d :     0.000000
      dxz     :     0.000000
      dyz     :     0.000000
      dx2y2   :     0.000000
      dxy     :     0.000000
  1 C s       :    -0.000000  s :    -0.000000
      pz      :     0.000000  p :     0.000000
      px      :     0.000000
      py      :     0.000000
      dz2     :     0.000000  d :     0.000000
      dxz     :     0.000000
      dyz     :     0.000000
      dx2y2   :     0.000000
      dxy     :     0.000000
  2 C s       :    -0.000000  s :    -0.000000
      pz      :     0.000000  p :     0.000000
      px      :     0.000000
      py      :     0.000000
      dz2     :     0.000000  d :     0.000000
      dxz     :     0.000000
      dyz     :     0.000000
      dx2y2   :     0.000000
      dxy     :     0.000000
  3 C s       :    -0.000000  s :    -0.000000
      pz      :     0.000000  p :     0.000000
      px      :     0.000000
      py      :     0.000000
      dz2     :     0.000000  d :     0.000000
      dxz     :     0.000000
      dyz     :     0.000000
      dx2y2   :     0.000000
      dxy     :     0.000000
  4 C s       :    -0.000000  s :    -0.000000
      pz      :     0.000000  p :     0.000000
      px      :     0.000000
      py      :     0.000000
      dz2     :     0.000000  d :     0.000000
      dxz     :     0.000000
      dyz     :     0.000000
      dx2y2   :     0.000000
      dxy     :     0.000000
  5 C s       :    -0.000000  s :    -0.000000
      pz      :     0.000000  p :     0.000000
      px      :     0.000000
      py      :     0.000000
      dz2     :     0.000000  d :     0.000000
      dxz     :     0.000000
      dyz     :     0.000000
      dx2y2   :     0.000000
      dxy     :     0.000000
  6 C s       :    -0.000000  s :    -0.000000
      pz      :     0.000000  p :     0.000000
      px      :     0.000000
      py      :     0.000000
      dz2     :     0.000000  d :     0.000000
      dxz     :     0.000000
      dyz     :     0.000000
      dx2y2   :     0.000000
      dxy     :     0.000000
  7 C s       :    -0.000000  s :    -0.000000
      pz      :     0.000000  p :     0.000000
      px      :     0.000000
      py      :     0.000000
      dz2     :     0.000000  d :     0.000000
      dxz     :     0.000000
      dyz     :     0.000000
      dx2y2   :     0.000000
      dxy     :     0.000000
  8 C s       :    -0.000000  s :    -0.000000
      pz      :     0.000000  p :     0.000000
      px      :     0.000000
      py      :     0.000000
      dz2     :     0.000000  d :     0.000000
      dxz     :     0.000000
      dyz     :     0.000000
      dx2y2   :     0.000000
      dxy     :     0.000000
  9 C s       :    -0.000000  s :    -0.000000
      pz      :     0.000000  p :     0.000000
      px      :     0.000000
      py      :     0.000000
      dz2     :     0.000000  d :     0.000000
      dxz     :     0.000000
      dyz     :     0.000000
      dx2y2   :     0.000000
      dxy     :     0.000000
 10 H s       :     0.000000  s :     0.000000
 11 H s       :     0.000000  s :     0.000000
 12 H s       :     0.000000  s :     0.000000
 13 H s       :     0.000000  s :     0.000000
 14 H s       :     0.000000  s :     0.000000
 15 H s       :     0.000000  s :     0.000000
 16 H s       :     0.000000  s :     0.000000
 17 H s       :     0.000000  s :     0.000000
 18 H s       :     0.000000  s :     0.000000
 19 H s       :     0.000000  s :     0.000000
 20 H s       :     0.000000  s :     0.000000
 21 H s       :     0.000000  s :     0.000000
 22 H s       :     0.000000  s :     0.000000
 23 H s       :     0.000000  s :     0.000000
 24 H s       :     0.000000  s :     0.000000
 25 H s       :     0.000000  s :     0.000000
 26 H s       :     0.000000  s :     0.000000
 27 H s       :     0.000000  s :     0.000000
 28 H s       :     0.000000  s :     0.000000
 29 H s       :     0.000000  s :     0.000000
 30 H s       :     0.000000  s :     0.000000
 31 H s       :     0.000000  s :     0.000000


                     *******************************
                     * LOEWDIN POPULATION ANALYSIS *
                     *******************************

-------------------------------------------
LOEWDIN ATOMIC CHARGES AND SPIN POPULATIONS
-------------------------------------------
   0 C :   -0.319848    0.000000
   1 C :   -0.221985    0.000000
   2 C :   -0.211477    0.000000
   3 C :   -0.207623    0.000000
   4 C :   -0.214206    0.000000
   5 C :   -0.208842    0.000000
   6 C :   -0.211857    0.000000
   7 C :   -0.213728    0.000000
   8 C :   -0.217131    0.000000
   9 C :   -0.321108    0.000000
  10 H :    0.108838    0.000000
  11 H :    0.105222    0.000000
  12 H :    0.110310    0.000000
  13 H :    0.103457    0.000000
  14 H :    0.108094    0.000000
  15 H :    0.110476    0.000000
  16 H :    0.106072    0.000000
  17 H :    0.101236    0.000000
  18 H :    0.108784    0.000000
  19 H :    0.103410    0.000000
  20 H :    0.108862    0.000000
  21 H :    0.106237    0.000000
  22 H :    0.102307    0.000000
  23 H :    0.106875    0.000000
  24 H :    0.102994    0.000000
  25 H :    0.107108    0.000000
  26 H :    0.103986    0.000000
  27 H :    0.110000    0.000000
  28 H :    0.105934    0.000000
  29 H :    0.110522    0.000000
  30 H :    0.108401    0.000000
  31 H :    0.108680    0.000000

----------------------------------------------------
LOEWDIN REDUCED ORBITAL CHARGES AND SPIN POPULATIONS
----------------------------------------------------
CHARGE
  0 C s       :     2.955608  s :     2.955608
      pz      :     1.106039  p :     3.289806
      px      :     1.109916
      py      :     1.073851
      dz2     :     0.017031  d :     0.074434
      dxz     :     0.008522
      dyz     :     0.016236
      dx2y2   :     0.018466
      dxy     :     0.014179
  1 C s       :     2.907251  s :     2.907251
      pz      :     1.072945  p :     3.222251
      px      :     1.076958
      py      :     1.072347
      dz2     :     0.026050  d :     0.092483
      dxz     :     0.016726
      dyz     :     0.010477
      dx2y2   :     0.017470
      dxy     :     0.021760
  2 C s       :     2.907741  s :     2.907741
      pz      :     1.074985  p :     3.211510
      px      :     1.058771
      py      :     1.077753
      dz2     :     0.008505  d :     0.092225
      dxz     :     0.024664
      dyz     :     0.025567
      dx2y2   :     0.013494
      dxy     :     0.019996
  3 C s       :     2.906107  s :     2.906107
      pz      :     1.083579  p :     3.207211
      px      :     1.052584
      py      :     1.071048
      dz2     :     0.012326  d :     0.094305
      dxz     :     0.016739
      dyz     :     0.023480
      dx2y2   :     0.016182
      dxy     :     0.025579
  4 C s       :     2.905027  s :     2.905027
      pz      :     1.089377  p :     3.215151
      px      :     1.050609
      py      :     1.075165
      dz2     :     0.015794  d :     0.094027
      dxz     :     0.008256
      dyz     :     0.027224
      dx2y2   :     0.018260
      dxy     :     0.024493
  5 C s       :     2.911235  s :     2.911235
      pz      :     1.084647  p :     3.205028
      px      :     1.050973
      py      :     1.069408
      dz2     :     0.016176  d :     0.092578
      dxz     :     0.009643
      dyz     :     0.026081
      dx2y2   :     0.016634
      dxy     :     0.024043
  6 C s       :     2.906833  s :     2.906833
      pz      :     1.077576  p :     3.211726
      px      :     1.066677
      py      :     1.067473
      dz2     :     0.012907  d :     0.093298
      dxz     :     0.019663
      dyz     :     0.026434
      dx2y2   :     0.009529
      dxy     :     0.024764
  7 C s       :     2.901787  s :     2.901787
      pz      :     1.069309  p :     3.214605
      px      :     1.066849
      py      :     1.078447
      dz2     :     0.016556  d :     0.097336
      dxz     :     0.015870
      dyz     :     0.026953
      dx2y2   :     0.013728
      dxy     :     0.024229
  8 C s       :     2.899082  s :     2.899082
      pz      :     1.075523  p :     3.220721
      px      :     1.074860
      py      :     1.070339
      dz2     :     0.019005  d :     0.097327
      dxz     :     0.016185
      dyz     :     0.019958
      dx2y2   :     0.017588
      dxy     :     0.024591
  9 C s       :     2.951144  s :     2.951144
      pz      :     1.103233  p :     3.294367
      px      :     1.108441
      py      :     1.082693
      dz2     :     0.024703  d :     0.075597
      dxz     :     0.004578
      dyz     :     0.013526
      dx2y2   :     0.011544
      dxy     :     0.021246
 10 H s       :     0.891162  s :     0.891162
 11 H s       :     0.894778  s :     0.894778
 12 H s       :     0.889690  s :     0.889690
 13 H s       :     0.896543  s :     0.896543
 14 H s       :     0.891906  s :     0.891906
 15 H s       :     0.889524  s :     0.889524
 16 H s       :     0.893928  s :     0.893928
 17 H s       :     0.898764  s :     0.898764
 18 H s       :     0.891216  s :     0.891216
 19 H s       :     0.896590  s :     0.896590
 20 H s       :     0.891138  s :     0.891138
 21 H s       :     0.893763  s :     0.893763
 22 H s       :     0.897693  s :     0.897693
 23 H s       :     0.893125  s :     0.893125
 24 H s       :     0.897006  s :     0.897006
 25 H s       :     0.892892  s :     0.892892
 26 H s       :     0.896014  s :     0.896014
 27 H s       :     0.890000  s :     0.890000
 28 H s       :     0.894066  s :     0.894066
 29 H s       :     0.889478  s :     0.889478
 30 H s       :     0.891599  s :     0.891599
 31 H s       :     0.891320  s :     0.891320

SPIN
  0 C s       :     0.000000  s :     0.000000
      pz      :     0.000000  p :     0.000000
      px      :     0.000000
      py      :     0.000000
      dz2     :     0.000000  d :     0.000000
      dxz     :     0.000000
      dyz     :     0.000000
      dx2y2   :     0.000000
      dxy     :     0.000000
  1 C s       :     0.000000  s :     0.000000
      pz      :     0.000000  p :     0.000000
      px      :     0.000000
      py      :     0.000000
      dz2     :     0.000000  d :     0.000000
      dxz     :     0.000000
      dyz     :     0.000000
      dx2y2   :     0.000000
      dxy     :     0.000000
  2 C s       :     0.000000  s :     0.000000
      pz      :     0.000000  p :     0.000000
      px      :     0.000000
      py      :     0.000000
      dz2     :     0.000000  d :     0.000000
      dxz     :     0.000000
      dyz     :     0.000000
      dx2y2   :     0.000000
      dxy     :     0.000000
  3 C s       :     0.000000  s :     0.000000
      pz      :     0.000000  p :     0.000000
      px      :     0.000000
      py      :     0.000000
      dz2     :     0.000000  d :     0.000000
      dxz     :     0.000000
      dyz     :     0.000000
      dx2y2   :     0.000000
      dxy     :     0.000000
  4 C s       :     0.000000  s :     0.000000
      pz      :     0.000000  p :     0.000000
      px      :     0.000000
      py      :     0.000000
      dz2     :     0.000000  d :     0.000000
      dxz     :     0.000000
      dyz     :     0.000000
      dx2y2   :     0.000000
      dxy     :     0.000000
  5 C s       :     0.000000  s :     0.000000
      pz      :     0.000000  p :     0.000000
      px      :     0.000000
      py      :     0.000000
      dz2     :     0.000000  d :     0.000000
      dxz     :     0.000000
      dyz     :     0.000000
      dx2y2   :     0.000000
      dxy     :     0.000000
  6 C s       :     0.000000  s :     0.000000
      pz      :     0.000000  p :     0.000000
      px      :     0.000000
      py      :     0.000000
      dz2     :     0.000000  d :     0.000000
      dxz     :     0.000000
      dyz     :     0.000000
      dx2y2   :     0.000000
      dxy     :     0.000000
  7 C s       :     0.000000  s :     0.000000
      pz      :     0.000000  p :     0.000000
      px      :     0.000000
      py      :     0.000000
      dz2     :     0.000000  d :     0.000000
      dxz     :     0.000000
      dyz     :     0.000000
      dx2y2   :     0.000000
      dxy     :     0.000000
  8 C s       :     0.000000  s :     0.000000
      pz      :     0.000000  p :     0.000000
      px      :     0.000000
      py      :     0.000000
      dz2     :     0.000000  d :     0.000000
      dxz     :     0.000000
      dyz     :     0.000000
      dx2y2   :     0.000000
      dxy     :     0.000000
  9 C s       :     0.000000  s :     0.000000
      pz      :     0.000000  p :     0.000000
      px      :     0.000000
      py      :     0.000000
      dz2     :     0.000000  d :     0.000000
      dxz     :     0.000000
      dyz     :     0.000000
      dx2y2   :     0.000000
      dxy     :     0.000000
 10 H s       :     0.000000  s :     0.000000
 11 H s       :     0.000000  s :     0.000000
 12 H s       :     0.000000  s :     0.000000
 13 H s       :     0.000000  s :     0.000000
 14 H s       :     0.000000  s :     0.000000
 15 H s       :     0.000000  s :     0.000000
 16 H s       :     0.000000  s :     0.000000
 17 H s       :     0.000000  s :     0.000000
 18 H s       :     0.000000  s :     0.000000
 19 H s       :     0.000000  s :     0.000000
 20 H s       :     0.000000  s :     0.000000
 21 H s       :     0.000000  s :     0.000000
 22 H s       :     0.000000  s :     0.000000
 23 H s       :     0.000000  s :     0.000000
 24 H s       :     0.000000  s :     0.000000
 25 H s       :     0.000000  s :     0.000000
 26 H s       :     0.000000  s :     0.000000
 27 H s       :     0.000000  s :     0.000000
 28 H s       :     0.000000  s :     0.000000
 29 H s       :     0.000000  s :     0.000000
 30 H s       :     0.000000  s :     0.000000
 31 H s       :     0.000000  s :     0.000000


                      *****************************
                      * MAYER POPULATION ANALYSIS *
                      *****************************

  NA   - Mulliken gross atomic population
  ZA   - Total nuclear charge
  QA   - Mulliken gross atomic charge
  VA   - Mayer's total valence
  BVA  - Mayer's bonded valence
  FA   - Mayer's free valence

  ATOM       NA         ZA         QA         VA         BVA        FA
  0 C      6.2781     6.0000    -0.2781     4.0256     4.0256    -0.0000
  1 C      6.1547     6.0000    -0.1547     4.1074     4.1074    -0.0000
  2 C      6.1151     6.0000    -0.1151     4.0551     4.0551     0.0000
  3 C      6.1470     6.0000    -0.1470     4.1107     4.1107     0.0000
  4 C      6.1850     6.0000    -0.1850     4.1013     4.1013     0.0000
  5 C      6.1271     6.0000    -0.1271     4.0845     4.0845     0.0000
  6 C      6.1344     6.0000    -0.1344     4.0802     4.0802     0.0000
  7 C      6.1825     6.0000    -0.1825     4.1217     4.1217     0.0000
  8 C      6.0946     6.0000    -0.0946     4.1310     4.1310     0.0000
  9 C      6.2787     6.0000    -0.2787     4.0242     4.0242    -0.0000
 10 H      0.9027     1.0000     0.0973     0.9574     0.9574     0.0000
 11 H      0.9198     1.0000     0.0802     0.9516     0.9516     0.0000
 12 H      0.9111     1.0000     0.0889     0.9534     0.9534     0.0000
 13 H      0.9203     1.0000     0.0797     0.9526     0.9526     0.0000
 14 H      0.9261     1.0000     0.0739     0.9441     0.9441     0.0000
 15 H      0.9344     1.0000     0.0656     0.9452     0.9452     0.0000
 16 H      0.9154     1.0000     0.0846     0.9675     0.9675     0.0000
 17 H      0.9325     1.0000     0.0675     0.9581     0.9581     0.0000
 18 H      0.9257     1.0000     0.0743     0.9518     0.9518     0.0000
 19 H      0.9275     1.0000     0.0725     0.9698     0.9698     0.0000
 20 H      0.9194     1.0000     0.0806     0.9481     0.9481     0.0000
 21 H      0.9344     1.0000     0.0656     0.9562     0.9562     0.0000
 22 H      0.9275     1.0000     0.0725     0.9576     0.9576     0.0000
 23 H      0.9212     1.0000     0.0788     0.9595     0.9595     0.0000
 24 H      0.9365     1.0000     0.0635     0.9552     0.9552     0.0000
 25 H      0.9234     1.0000     0.0766     0.9577     0.9577     0.0000
 26 H      0.9337     1.0000     0.0663     0.9519     0.9519     0.0000
 27 H      0.9307     1.0000     0.0693     0.9556     0.9556     0.0000
 28 H      0.9345     1.0000     0.0655     0.9471     0.9471     0.0000
 29 H      0.9003     1.0000     0.0997     0.9548     0.9548     0.0000
 30 H      0.9148     1.0000     0.0852     0.9475     0.9475     0.0000
 31 H      0.9113     1.0000     0.0887     0.9587     0.9587     0.0000

  Mayer bond orders larger than 0.100000
B(  0-C ,  1-C ) :   1.1201 B(  0-C , 10-H ) :   0.9651 B(  0-C , 11-H ) :   0.9611 
[...]
      px      :     0.000000
      py      :     0.000000
      dz2     :     0.000000  d :     0.000000
      dxz     :     0.000000
      dyz     :     0.000000
      dx2y2   :     0.000000
      dxy     :     0.000000
  9 C s       :    -0.000000  s :    -0.000000
      pz      :     0.000000  p :     0.000000
      px      :     0.000000
      py      :     0.000000
      dz2     :     0.000000  d :     0.000000
      dxz     :     0.000000
      dyz     :     0.000000
      dx2y2   :     0.000000
      dxy     :     0.000000
 10 H s       :     0.000000  s :     0.000000
 11 H s       :     0.000000  s :     0.000000
 12 H s       :     0.000000  s :     0.000000
 13 H s       :     0.000000  s :     0.000000
 14 H s       :     0.000000  s :     0.000000
 15 H s       :     0.000000  s :     0.000000
 16 H s       :     0.000000  s :     0.000000
 17 H s       :     0.000000  s :     0.000000
 18 H s       :     0.000000  s :     0.000000
 19 H s       :     0.000000  s :     0.000000
 20 H s       :     0.000000  s :     0.000000
 21 H s       :     0.000000  s :     0.000000
 22 H s       :     0.000000  s :     0.000000
 23 H s       :     0.000000  s :     0.000000
 24 H s       :     0.000000  s :     0.000000
 25 H s       :     0.000000  s :     0.000000
 26 H s       :     0.000000  s :     0.000000
 27 H s       :     0.000000  s :     0.000000
 28 H s       :     0.000000  s :     0.000000
 29 H s       :     0.000000  s :     0.000000
 30 H s       :     0.000000  s :     0.000000
 31 H s       :     0.000000  s :     0.000000


                     *******************************
                     * LOEWDIN POPULATION ANALYSIS *
                     *******************************

-------------------------------------------
LOEWDIN ATOMIC CHARGES AND SPIN POPULATIONS
-------------------------------------------
   0 C :   -0.318964    0.000000
   1 C :   -0.221122    0.000000
   2 C :   -0.210387    0.000000
   3 C :   -0.208020    0.000000
   4 C :   -0.216415    0.000000
   5 C :   -0.206858    0.000000
   6 C :   -0.211221    0.000000
   7 C :   -0.214937    0.000000
   8 C :   -0.216601    0.000000
   9 C :   -0.321353    0.000000
  10 H :    0.108471    0.000000
  11 H :    0.110514    0.000000
  12 H :    0.109167    0.000000
  13 H :    0.106819    0.000000
  14 H :    0.105500    0.000000
  15 H :    0.106084    0.000000
  16 H :    0.103883    0.000000
  17 H :    0.105649    0.000000
  18 H :    0.104704    0.000000
  19 H :    0.104477    0.000000
  20 H :    0.107253    0.000000
  21 H :    0.103972    0.000000
  22 H :    0.105444    0.000000
  23 H :    0.104904    0.000000
  24 H :    0.106416    0.000000
  25 H :    0.106084    0.000000
  26 H :    0.105951    0.000000
  27 H :    0.105563    0.000000
  28 H :    0.106454    0.000000
  29 H :    0.108772    0.000000
  30 H :    0.111040    0.000000
  31 H :    0.108755    0.000000

----------------------------------------------------
LOEWDIN REDUCED ORBITAL CHARGES AND SPIN POPULATIONS
----------------------------------------------------
CHARGE
  0 C s       :     2.952561  s :     2.952561
      pz      :     1.110323  p :     3.292985
      px      :     1.080104
      py      :     1.102558
      dz2     :     0.012863  d :     0.073418
      dxz     :     0.006772
      dyz     :     0.022741
      dx2y2   :     0.009596
      dxy     :     0.021446
  1 C s       :     2.911937  s :     2.911937
      pz      :     1.074924  p :     3.218697
      px      :     1.065758
      py      :     1.078016
      dz2     :     0.018462  d :     0.090487
      dxz     :     0.010130
      dyz     :     0.025603
      dx2y2   :     0.010722
      dxy     :     0.025571
  2 C s       :     2.913567  s :     2.913567
      pz      :     1.072593  p :     3.206725
      px      :     1.060101
      py      :     1.074031
      dz2     :     0.018044  d :     0.090095
      dxz     :     0.010078
      dyz     :     0.026154
      dx2y2   :     0.010161
      dxy     :     0.025658
  3 C s       :     2.912007  s :     2.912007
      pz      :     1.089074  p :     3.205780
      px      :     1.043050
      py      :     1.073656
      dz2     :     0.013873  d :     0.090232
      dxz     :     0.007604
      dyz     :     0.029039
      dx2y2   :     0.017243
      dxy     :     0.022473
  4 C s       :     2.912597  s :     2.912597
      pz      :     1.093154  p :     3.213990
      px      :     1.040687
      py      :     1.080150
      dz2     :     0.013933  d :     0.089827
      dxz     :     0.007143
      dyz     :     0.029505
      dx2y2   :     0.016800
      dxy     :     0.022447
  5 C s       :     2.912090  s :     2.912090
      pz      :     1.088512  p :     3.204403
      px      :     1.043038
      py      :     1.072853
      dz2     :     0.014305  d :     0.090364
      dxz     :     0.006884
      dyz     :     0.029230
      dx2y2   :     0.017501
      dxy     :     0.022444
  6 C s       :     2.911802  s :     2.911802
      pz      :     1.074776  p :     3.209504
      px      :     1.062751
      py      :     1.071976
      dz2     :     0.020964  d :     0.089915
      dxz     :     0.007057
      dyz     :     0.025730
      dx2y2   :     0.010397
      dxy     :     0.025768
  7 C s       :     2.913906  s :     2.913906
      pz      :     1.070413  p :     3.211232
      px      :     1.066536
      py      :     1.074283
      dz2     :     0.020134  d :     0.089799
      dxz     :     0.008881
      dyz     :     0.024509
      dx2y2   :     0.010222
      dxy     :     0.026053
  8 C s       :     2.911169  s :     2.911169
      pz      :     1.075841  p :     3.214814
      px      :     1.067758
      py      :     1.071214
      dz2     :     0.022962  d :     0.090618
      dxz     :     0.007264
      dyz     :     0.021240
      dx2y2   :     0.011481
      dxy     :     0.027671
  9 C s       :     2.952187  s :     2.952187
      pz      :     1.097212  p :     3.295897
      px      :     1.107551
      py      :     1.091135
      dz2     :     0.022277  d :     0.073268
      dxz     :     0.004131
      dyz     :     0.016762
      dx2y2   :     0.006782
      dxy     :     0.023317
 10 H s       :     0.891529  s :     0.891529
 11 H s       :     0.889486  s :     0.889486
 12 H s       :     0.890833  s :     0.890833
 13 H s       :     0.893181  s :     0.893181
 14 H s       :     0.894500  s :     0.894500
 15 H s       :     0.893916  s :     0.893916
 16 H s       :     0.896117  s :     0.896117
 17 H s       :     0.894351  s :     0.894351
 18 H s       :     0.895296  s :     0.895296
 19 H s       :     0.895523  s :     0.895523
 20 H s       :     0.892747  s :     0.892747
 21 H s       :     0.896028  s :     0.896028
 22 H s       :     0.894556  s :     0.894556
 23 H s       :     0.895096  s :     0.895096
 24 H s       :     0.893584  s :     0.893584
 25 H s       :     0.893916  s :     0.893916
 26 H s       :     0.894049  s :     0.894049
 27 H s       :     0.894437  s :     0.894437
 28 H s       :     0.893546  s :     0.893546
 29 H s       :     0.891228  s :     0.891228
 30 H s       :     0.888960  s :     0.888960
 31 H s       :     0.891245  s :     0.891245

SPIN
  0 C s       :     0.000000  s :     0.000000
      pz      :     0.000000  p :     0.000000
      px      :     0.000000
      py      :     0.000000
      dz2     :     0.000000  d :     0.000000
      dxz     :     0.000000
      dyz     :     0.000000
      dx2y2   :     0.000000
      dxy     :     0.000000
  1 C s       :     0.000000  s :     0.000000
      pz      :     0.000000  p :     0.000000
      px      :     0.000000
      py      :     0.000000
      dz2     :     0.000000  d :     0.000000
      dxz     :     0.000000
      dyz     :     0.000000
      dx2y2   :     0.000000
      dxy     :     0.000000
  2 C s       :     0.000000  s :     0.000000
      pz      :     0.000000  p :     0.000000
      px      :     0.000000
      py      :     0.000000
      dz2     :     0.000000  d :     0.000000
      dxz     :     0.000000
      dyz     :     0.000000
      dx2y2   :     0.000000
      dxy     :     0.000000
  3 C s       :     0.000000  s :     0.000000
      pz      :     0.000000  p :     0.000000
      px      :     0.000000
      py      :     0.000000
      dz2     :     0.000000  d :     0.000000
      dxz     :     0.000000
      dyz     :     0.000000
      dx2y2   :     0.000000
      dxy     :     0.000000
  4 C s       :     0.000000  s :     0.000000
      pz      :     0.000000  p :     0.000000
      px      :     0.000000
      py      :     0.000000
      dz2     :     0.000000  d :     0.000000
      dxz     :     0.000000
      dyz     :     0.000000
      dx2y2   :     0.000000
      dxy     :     0.000000
  5 C s       :     0.000000  s :     0.000000
      pz      :     0.000000  p :     0.000000
      px      :     0.000000
      py      :     0.000000
      dz2     :     0.000000  d :     0.000000
      dxz     :     0.000000
      dyz     :     0.000000
      dx2y2   :     0.000000
      dxy     :     0.000000
  6 C s       :     0.000000  s :     0.000000
      pz      :     0.000000  p :     0.000000
      px      :     0.000000
      py      :     0.000000
      dz2     :     0.000000  d :     0.000000
      dxz     :     0.000000
      dyz     :     0.000000
      dx2y2   :     0.000000
      dxy     :     0.000000
  7 C s       :     0.000000  s :     0.000000
      pz      :     0.000000  p :     0.000000
      px      :     0.000000
      py      :     0.000000
      dz2     :     0.000000  d :     0.000000
      dxz     :     0.000000
      dyz     :     0.000000
      dx2y2   :     0.000000
      dxy     :     0.000000
  8 C s       :     0.000000  s :     0.000000
      pz      :     0.000000  p :     0.000000
      px      :     0.000000
      py      :     0.000000
      dz2     :     0.000000  d :     0.000000
      dxz     :     0.000000
      dyz     :     0.000000
      dx2y2   :     0.000000
      dxy     :     0.000000
  9 C s       :     0.000000  s :     0.000000
      pz      :     0.000000  p :     0.000000
      px      :     0.000000
      py      :     0.000000
      dz2     :     0.000000  d :     0.000000
      dxz     :     0.000000
      dyz     :     0.000000
      dx2y2   :     0.000000
      dxy     :     0.000000
 10 H s       :     0.000000  s :     0.000000
 11 H s       :     0.000000  s :     0.000000
 12 H s       :     0.000000  s :     0.000000
 13 H s       :     0.000000  s :     0.000000
 14 H s       :     0.000000  s :     0.000000
 15 H s       :     0.000000  s :     0.000000
 16 H s       :     0.000000  s :     0.000000
 17 H s       :     0.000000  s :     0.000000
 18 H s       :     0.000000  s :     0.000000
 19 H s       :     0.000000  s :     0.000000
 20 H s       :     0.000000  s :     0.000000
 21 H s       :     0.000000  s :     0.000000
 22 H s       :     0.000000  s :     0.000000
 23 H s       :     0.000000  s :     0.000000
 24 H s       :     0.000000  s :     0.000000
 25 H s       :     0.000000  s :     0.000000
 26 H s       :     0.000000  s :     0.000000
 27 H s       :     0.000000  s :     0.000000
 28 H s       :     0.000000  s :     0.000000
 29 H s       :     0.000000  s :     0.000000
 30 H s       :     0.000000  s :     0.000000
 31 H s       :     0.000000  s :     0.000000


                      *****************************
                      * MAYER POPULATION ANALYSIS *
                      *****************************

  NA   - Mulliken gross atomic population
  ZA   - Total nuclear charge
  QA   - Mulliken gross atomic charge
  VA   - Mayer's total valence
  BVA  - Mayer's bonded valence
  FA   - Mayer's free valence

  ATOM       NA         ZA         QA         VA         BVA        FA
  0 C      6.2404     6.0000    -0.2404     4.0048     4.0048     0.0000
  1 C      6.1815     6.0000    -0.1815     4.1233     4.1233     0.0000
  2 C      6.1240     6.0000    -0.1240     4.0763     4.0763     0.0000
  3 C      6.1052     6.0000    -0.1052     4.0800     4.0800     0.0000
  4 C      6.2157     6.0000    -0.2157     4.0980     4.0980     0.0000
  5 C      6.1072     6.0000    -0.1072     4.0811     4.0811     0.0000
  6 C      6.1296     6.0000    -0.1296     4.0783     4.0783     0.0000
  7 C      6.1731     6.0000    -0.1731     4.0906     4.0906     0.0000
  8 C      6.1289     6.0000    -0.1289     4.1153     4.1153     0.0000
  9 C      6.2635     6.0000    -0.2635     4.0067     4.0067     0.0000
 10 H      0.9143     1.0000     0.0857     0.9584     0.9584     0.0000
 11 H      0.9095     1.0000     0.0905     0.9516     0.9516     0.0000
 12 H      0.9126     1.0000     0.0874     0.9576     0.9576     0.0000
 13 H      0.9153     1.0000     0.0847     0.9483     0.9483     0.0000
 14 H      0.9293     1.0000     0.0707     0.9501     0.9501     0.0000
 15 H      0.9335     1.0000     0.0665     0.9512     0.9512     0.0000
 16 H      0.9362     1.0000     0.0638     0.9564     0.9564     0.0000
 17 H      0.9346     1.0000     0.0654     0.9525     0.9525     0.0000
 18 H      0.9358     1.0000     0.0642     0.9570     0.9570     0.0000
 19 H      0.9351     1.0000     0.0649     0.9573     0.9573     0.0000
 20 H      0.9045     1.0000     0.0955     0.9557     0.9557     0.0000
 21 H      0.9363     1.0000     0.0637     0.9570     0.9570     0.0000
 22 H      0.9336     1.0000     0.0664     0.9527     0.9527     0.0000
 23 H      0.9292     1.0000     0.0708     0.9584     0.9584     0.0000
 24 H      0.9336     1.0000     0.0664     0.9524     0.9524     0.0000
 25 H      0.9177     1.0000     0.0823     0.9532     0.9532     0.0000
 26 H      0.9324     1.0000     0.0676     0.9517     0.9517     0.0000
 27 H      0.9286     1.0000     0.0714     0.9512     0.9512     0.0000
 28 H      0.9312     1.0000     0.0688     0.9461     0.9461     0.0000
 29 H      0.9041     1.0000     0.0959     0.9572     0.9572     0.0000
 30 H      0.9109     1.0000     0.0891     0.9519     0.9519     0.0000
 31 H      0.9127     1.0000     0.0873     0.9577     0.9577     0.0000

  Mayer bond orders larger than 0.100000
B(  0-C ,  1-C ) :   1.1319 B(  0-C , 10-H ) :   0.9595 B(  0-C , 11-H ) :   0.9600 
B(  0-C , 12-H ) :   0.9603 B(  1-C ,  2-C ) :   1.1119 B(  1-C , 13-H ) :   0.9299 
B(  1-C , 14-H ) :   0.9367 B(  2-C ,  3-C ) :   1.1100 B(  2-C , 15-H ) :   0.9308 
B(  2-C , 16-H ) :   0.9285 B(  3-C ,  4-C ) :   1.1161 B(  3-C , 17-H ) :   0.9287 
B(  3-C , 18-H ) :   0.9258 B(  4-C ,  5-C ) :   1.1143 B(  4-C , 19-H ) :   0.9297 
B(  4-C , 20-H ) :   0.9193 B(  5-C ,  6-C ) :   1.1112 B(  5-C , 21-H ) :   0.9255 
B(  5-C , 22-H ) :   0.9297 B(  6-C ,  7-C ) :   1.1121 B(  6-C , 23-H ) :   0.9227 
B(  6-C , 24-H ) :   0.9299 B(  7-C ,  8-C ) :   1.1097 B(  7-C , 25-H ) :   0.9237 
B(  7-C , 26-H ) :   0.9323 B(  8-C ,  9-C ) :   1.1285 B(  8-C , 27-H ) :   0.9338 
B(  8-C , 28-H ) :   0.9370 B(  9-C , 29-H ) :   0.9573 B(  9-C , 30-H ) :   0.9587 
B(  9-C , 31-H ) :   0.9604 

-------
TIMINGS
-------

Total SCF time: 0 days 0 hours 1 min 51 sec 

Total time                  ....     111.116 sec
Sum of individual times     ....      98.236 sec  ( 88.4%)

Fock matrix formation       ....      87.694 sec  ( 78.9%)
  XC integration            ....      27.955 sec  ( 31.9% of F)
    Basis function eval.    ....       2.148 sec  (  7.7% of XC)
    Density eval.           ....       1.998 sec  (  7.1% of XC)
    XC-Functional eval.     ....       0.417 sec  (  1.5% of XC)
    XC-Potential eval.      ....       2.343 sec  (  8.4% of XC)
Diagonalization             ....       0.153 sec  (  0.1%)
Density matrix formation    ....       2.174 sec  (  2.0%)
Population analysis         ....       0.903 sec  (  0.8%)
Initial guess               ....       0.016 sec  (  0.0%)
Orbital Transformation      ....       0.000 sec  (  0.0%)
Orbital Orthonormalization  ....       0.010 sec  (  0.0%)
DIIS solution               ....       2.256 sec  (  2.0%)
Grid generation             ....       5.041 sec  (  4.5%)


-------------------------------------------------------------------------------
                          DFT DISPERSION CORRECTION                            
                                                                               
                              DFTD3 V3.1  Rev 1                                
                          USING Becke-Johnson damping                          
-------------------------------------------------------------------------------
The B3LYP functional is recognized
Active option DFTDOPT                   ...         4   

molecular C6(AA) [au] = 6609.685357 


            DFT-D V3
 parameters
 s6 scaling factor         :     1.0000 
 a1 scaling factor         :     0.3981 
 s8 scaling factor         :     1.9889 
 a2 scaling factor         :     4.4211 
 ad hoc parameters k1-k3   :    16.0000     1.3333    -4.0000 

 Edisp/kcal,au: -28.116563792814  -0.044806591702 
 E6   /kcal   : -14.133522637 
 E8   /kcal   : -13.983041156 
 % E8         :  49.732397100 

-------------------------   ----------------
Dispersion correction           -0.044806592
-------------------------   ----------------


-------------------------   --------------------
FINAL SINGLE POINT ENERGY      -393.748313990928
-------------------------   --------------------

                                *** OPTIMIZATION RUN DONE ***

                            ***************************************
                            *     ORCA property calculations      *
                            ***************************************

                                    ---------------------
                                    Active property flags
                                    ---------------------
   (+) Dipole Moment


------------------------------------------------------------------------------
                       ORCA ELECTRIC PROPERTIES CALCULATION
------------------------------------------------------------------------------

Dipole Moment Calculation                       ... on
Quadrupole Moment Calculation                   ... off
Polarizability Calculation                      ... off
GBWName                                         ... orca5.gbw
Electron density file                           ... orca5.scfp
The origin for moment calculation is the CENTER OF MASS  = (-0.032089, -0.130873 -0.177560)

-------------
DIPOLE MOMENT
-------------
                                X             Y             Z
Electronic contribution:     -0.57614      -2.27149      -0.17667
Nuclear contribution   :      0.55650       2.26963       0.20006
                        -----------------------------------------
Total Dipole Moment    :     -0.01963      -0.00186       0.02339
                        -----------------------------------------
Magnitude (a.u.)       :      0.03059
Magnitude (Debye)      :      0.07777



--------------------
Rotational spectrum 
--------------------
 
Rotational constants in cm-1:     0.073769     0.012692     0.011515 
Rotational constants in MHz :  2211.545857   380.492122   345.217681 

 Dipole components along the rotational axes: 
x,y,z [a.u.] :    -0.020951     0.004625    -0.021811 
x,y,z [Debye]:    -0.053254     0.011755    -0.055438 

 

Timings for individual modules:

Sum of individual times         ...     8188.703 sec (= 136.478 min)
GTO integral calculation        ...      151.923 sec (=   2.532 min)   1.9 %
SCF iterations                  ...     7197.559 sec (= 119.959 min)  87.9 %
SCF Gradient evaluation         ...      767.706 sec (=  12.795 min)   9.4 %
Geometry relaxation             ...       71.515 sec (=   1.192 min)   0.9 %
                             ****ORCA TERMINATED NORMALLY****
TOTAL RUN TIME: 0 days 2 hours 19 minutes 23 seconds 891 msec
