
                                 *****************
                                 * O   R   C   A *
                                 *****************

           --- An Ab Initio, DFT and Semiempirical electronic structure package ---

                  #######################################################
                  #                        -***-                        #
                  #          Department of theory and spectroscopy      #
                  #               Directorship: Frank Neese             #
                  #        Max Planck Institute fuer Kohlenforschung    #
                  #                Kaiser Wilhelm Platz 1               #
                  #                 D-45470 Muelheim/Ruhr               #
                  #                      Germany                        #
                  #                                                     #
                  #                  All rights reserved                #
                  #                        -***-                        #
                  #######################################################


                         Program Version 4.2.1 -  RELEASE  -


 With contributions from (in alphabetic order):
   Daniel Aravena         : Magnetic Suceptibility
   Michael Atanasov       : Ab Initio Ligand Field Theory (pilot matlab implementation)
   Alexander A. Auer      : GIAO ZORA, VPT2
   Ute Becker             : Parallelization
   Giovanni Bistoni       : ED, misc. LED, open-shell LED, HFLD
   Martin Brehm           : Molecular dynamics
   Dmytro Bykov           : SCF Hessian
   Vijay G. Chilkuri      : MRCI spin determinant printing, contributions to CSF-ICE
   Dipayan Datta          : RHF DLPNO-CCSD density
   Achintya Kumar Dutta   : EOM-CC, STEOM-CC
   Dmitry Ganyushin       : Spin-Orbit,Spin-Spin,Magnetic field MRCI
   Miquel Garcia          : C-PCM Hessian, Gaussian charge scheme
   Yang Guo               : DLPNO-NEVPT2, CIM, IAO-localization
   Andreas Hansen         : Spin unrestricted coupled pair/coupled cluster methods
   Benjamin Helmich-Paris : CASSCF linear response (MC-RPA)
   Lee Huntington         : MR-EOM, pCC
   Robert Izsak           : Overlap fitted RIJCOSX, COSX-SCS-MP3, EOM
   Christian Kollmar      : KDIIS, OOCD, Brueckner-CCSD(T), CCSD density
   Simone Kossmann        : Meta GGA functionals, TD-DFT gradient, OOMP2, MP2 Hessian
   Martin Krupicka        : AUTO-CI
   Lucas Lang             : DCDCAS
   Dagmar Lenk            : GEPOL surface, SMD
   Dimitrios Liakos       : Extrapolation schemes; Compound Job, initial MDCI parallelization
   Dimitrios Manganas     : Further ROCIS development; embedding schemes
   Dimitrios Pantazis     : SARC Basis sets
   Taras Petrenko         : DFT Hessian,TD-DFT gradient, ASA, ECA, R-Raman, ABS, FL, XAS/XES, NRVS
   Peter Pinski           : DLPNO-MP2, DLPNO-MP2 Gradient
   Christoph Reimann      : Effective Core Potentials
   Marius Retegan         : Local ZFS, SOC
   Christoph Riplinger    : Optimizer, TS searches, QM/MM, DLPNO-CCSD(T), (RO)-DLPNO pert. Triples
   Tobias Risthaus        : Range-separated hybrids, TD-DFT gradient, RPA, STAB
   Michael Roemelt        : Original ROCIS implementation
   Masaaki Saitow         : Open-shell DLPNO-CCSD energy and density
   Barbara Sandhoefer     : DKH picture change effects
   Avijit Sen             : IP-ROCIS
   Kantharuban Sivalingam : CASSCF convergence, NEVPT2, FIC-MRCI
   Bernardo de Souza      : ESD, SOC TD-DFT
   Georgi Stoychev        : AutoAux, RI-MP2 NMR
   Willem Van den Heuvel  : Paramagnetic NMR
   Boris Wezisla          : Elementary symmetry handling
   Frank Wennmohs         : Technical directorship


 We gratefully acknowledge several colleagues who have allowed us to
 interface, adapt or use parts of their codes:
   Stefan Grimme, W. Hujo, H. Kruse,             : VdW corrections, initial TS optimization,
                  C. Bannwarth                     DFT functionals, gCP, sTDA/sTD-DF
   Ed Valeev, F. Pavosevic, A. Kumar             : LibInt (2-el integral package), F12 methods
   Garnet Chan, S. Sharma, J. Yang, R. Olivares  : DMRG
   Ulf Ekstrom                                   : XCFun DFT Library
   Mihaly Kallay                                 : mrcc  (arbitrary order and MRCC methods)
   Andreas Klamt, Michael Diedenhofen            : otool_cosmo (COSMO solvation model)
   Jiri Pittner, Ondrej Demel                    : Mk-CCSD
   Frank Weinhold                                : gennbo (NPA and NBO analysis)
   Christopher J. Cramer and Donald G. Truhlar   : smd solvation model
   Lars Goerigk                                  : TD-DFT with DH, B97 family of functionals
   V. Asgeirsson, H. Jonsson                     : NEB implementation
   FAccTs GmbH                                   : IRC, NEB, NEB-TS, Multilevel, MM, QM/MM, CI optimization
   S Lehtola, MJT Oliveira, MAL Marques          : LibXC Library


 Your calculation uses the libint2 library for the computation of 2-el integrals
 For citations please refer to: http://libint.valeyev.net

 Your ORCA version has been built with support for libXC version: 4.2.3
 For citations please refer to: https://tddft.org/programs/libxc/

 This ORCA versions uses:
   CBLAS   interface :  Fast vector & matrix operations
   LAPACKE interface :  Fast linear algebra routines
   SCALAPACK package :  Parallel linear algebra routines


Your calculation utilizes the atom-pairwise dispersion correction
with the Becke-Johnson damping scheme (D3BJ)
Cite in your paper:
S.Grimme, S.Ehrlich, L.Goerigk, J Comput Chem, (2011), 32, 1456–1465 
S.Grimme, J.Antony, S.Ehrlich and H.Krieg, J.Chem.Phys., 132, (2010), 154104 
   

----- Orbital basis set information -----
Your calculation utilizes the basis: def2-SV(P)
   F. Weigend and R. Ahlrichs, Phys. Chem. Chem. Phys. 7, 3297 (2005).

----- AuxJ basis set information -----
Your calculation utilizes the auxiliary basis: def2/J
   F. Weigend, Phys. Chem. Chem. Phys. 8, 1057 (2006).

================================================================================
                                        WARNINGS
                       Please study these warnings very carefully!
================================================================================


WARNING: Geometry Optimization
  ===> : Switching off AutoStart
         For restart on a previous wavefunction, please use MOREAD

INFO   : the flag for use of LIBINT has been found!

================================================================================
                                       INPUT FILE
================================================================================
NAME = orca8.inp
|  1> ! UKS B3LYP def2-SV(P) def2/J D3BJ Opt
|  2> %scf Convergence VeryTight
|  3> SmearTemp 2000
|  4> maxiter 500
|  5> end
|  6> *xyz 0 1
|  7> C 4.522128 -0.74289 0.780796
|  8> C 3.742167 0.252526 1.599196
|  9> C 2.636207 0.808115 0.747164
| 10> C 1.849842 -0.293942 0.052037
| 11> C 0.760721 0.366663 -0.780362
| 12> C -0.616657 -0.033891 -0.278555
| 13> C -1.513613 -0.098999 -1.5056
| 14> C -2.82462 0.569958 -1.106365
| 15> C -3.441809 -0.360731 -0.077164
| 16> C -4.882863 -0.042901 0.202342
| 17> H 3.878224 -1.64661 0.694901
| 18> H 5.413066 -1.036348 1.356234
| 19> H 4.752924 -0.270329 -0.18313
| 20> H 4.392165 1.080192 1.920682
| 21> H 3.27536 -0.197015 2.504452
| 22> H 1.888919 1.337142 1.390378
| 23> H 3.02802 1.473762 -0.045359
| 24> H 1.428987 -0.968541 0.816097
| 25> H 2.529216 -0.852125 -0.614935
| 26> H 0.806331 1.480389 -0.678957
| 27> H 0.900003 0.157129 -1.855841
| 28> H -1.007996 0.682155 0.482803
| 29> H -0.543139 -1.012869 0.240379
| 30> H -1.730604 -1.169785 -1.739276
| 31> H -1.068748 0.400327 -2.380653
| 32> H -2.570877 1.559107 -0.699817
| 33> H -3.502921 0.639849 -1.979074
| 34> H -2.856054 -0.358999 0.856212
| 35> H -3.427432 -1.380041 -0.541229
| 36> H -5.486157 -0.971417 0.362786
| 37> H -5.348603 0.480431 -0.642579
| 38> H -4.982186 0.587572 1.102437
| 39> *
| 40> 
| 41>                          ****END OF INPUT****
================================================================================

                       *****************************
                       * Geometry Optimization Run *
                       *****************************

Geometry optimization settings:
Update method            Update   .... BFGS
Choice of coordinates    CoordSys .... Z-matrix Internals
Initial Hessian          InHess   .... Almoef's Model

Convergence Tolerances:
Energy Change            TolE     ....  5.0000e-06 Eh
Max. Gradient            TolMAXG  ....  3.0000e-04 Eh/bohr
RMS Gradient             TolRMSG  ....  1.0000e-04 Eh/bohr
Max. Displacement        TolMAXD  ....  4.0000e-03 bohr
RMS Displacement         TolRMSD  ....  2.0000e-03 bohr
Strict Convergence                ....  False
------------------------------------------------------------------------------
                        ORCA OPTIMIZATION COORDINATE SETUP
------------------------------------------------------------------------------

The optimization will be done in new redundant internal coordinates
Making redundant internal coordinates   ...  (new redundants) done
Evaluating the initial hessian          ...  (Almloef) done
Evaluating the coordinates              ...  done
Calculating the B-matrix                .... done
Calculating the G-matrix                .... done
Diagonalizing the G-matrix              .... done
Small eigenvalue found = 4.090e-03
Small eigenvalue found = 8.131e-03
Small eigenvalue found = 1.682e-02
Small eigenvalue found = 2.023e-02
The first mode is                       ....   82
The number of degrees of freedom        ....   90

    -----------------------------------------------------------------
                    Redundant Internal Coordinates


    -----------------------------------------------------------------
         Definition                    Initial Value    Approx d2E/dq
    -----------------------------------------------------------------
      1. B(C   1,C   0)                  1.5063         0.407542   
      2. B(C   2,C   1)                  1.5026         0.413146   
      3. B(C   3,C   2)                  1.5219         0.384894   
      4. B(C   4,C   3)                  1.5217         0.385187   
      5. B(C   5,C   4)                  1.5197         0.388011   
      6. B(C   6,C   5)                  1.5213         0.385682   
      7. B(C   7,C   6)                  1.5250         0.380497   
      8. B(C   8,C   7)                  1.5187         0.389452   
      9. B(C   9,C   8)                  1.5019         0.414162   
     10. B(H  10,C   0)                  1.1130         0.330961   
     11. B(H  11,C   0)                  1.1005         0.346522   
     12. B(H  12,C   0)                  1.0981         0.349595   
     13. B(H  13,C   1)                  1.1004         0.346601   
     14. B(H  14,C   1)                  1.1133         0.330533   
     15. B(H  15,C   2)                  1.1189         0.323777   
     16. B(H  16,C   2)                  1.1067         0.338722   
     17. B(H  17,C   3)                  1.1027         0.343661   
     18. B(H  18,C   3)                  1.1036         0.342530   
     19. B(H  19,C   4)                  1.1193         0.323397   
     20. B(H  20,C   4)                  1.1045         0.341398   
     21. B(H  21,C   5)                  1.1160         0.327255   
     22. B(H  22,C   5)                  1.1104         0.334041   
     23. B(H  23,C   6)                  1.1173         0.325784   
     24. B(H  24,C   6)                  1.1013         0.345407   
     25. B(H  25,C   7)                  1.0991         0.348225   
     26. B(H  26,C   7)                  1.1075         0.337655   
     27. B(H  27,C   8)                  1.1020         0.344629   
     28. B(H  28,C   8)                  1.1201         0.322440   
     29. B(H  29,C   9)                  1.1189         0.323876   
     30. B(H  30,C   9)                  1.0976         0.350211   
     31. B(H  31,C   9)                  1.1034         0.342780   
     32. A(C   1,C   0,H  12)          107.5407         0.327397   
     33. A(C   1,C   0,H  11)          108.1394         0.326921   
     34. A(H  11,C   0,H  12)          113.8051         0.287755   
     35. A(C   1,C   0,H  10)          106.1976         0.324460   
     36. A(H  10,C   0,H  11)          106.9907         0.285306   
     37. A(H  10,C   0,H  12)          113.7847         0.285699   
     38. A(H  13,C   1,H  14)          108.2899         0.285259   
     39. A(C   2,C   1,H  14)          107.5631         0.325120   
     40. A(C   0,C   1,H  14)          113.0822         0.324391   
     41. A(C   0,C   1,H  13)          110.4822         0.326933   
     42. A(C   0,C   1,C   2)          108.5044         0.375259   
     43. A(C   2,C   1,H  13)          108.8035         0.327670   
     44. A(C   3,C   2,H  15)          105.0610         0.320281   
     45. A(C   3,C   2,H  16)          106.9421         0.322655   
     46. A(C   1,C   2,H  16)          111.5856         0.326431   
     47. A(C   1,C   2,H  15)          109.9025         0.324019   
     48. A(C   1,C   2,C   3)          111.8119         0.371578   
     49. A(H  15,C   2,H  16)          111.3300         0.283329   
     50. A(C   4,C   3,H  18)          109.2432         0.323287   
     51. A(C   4,C   3,H  17)          111.8051         0.323462   
     52. A(C   2,C   3,C   4)          107.7771         0.367132   
     53. A(C   2,C   3,H  17)          108.8883         0.323422   
     54. A(C   2,C   3,H  18)          108.9182         0.323247   
     55. A(H  17,C   3,H  18)          110.1375         0.286468   
     56. A(C   5,C   4,H  19)          105.6221         0.320642   
     57. A(C   3,C   4,H  19)          110.6867         0.320259   
     58. A(C   3,C   4,C   5)          110.7113         0.367640   
     59. A(C   5,C   4,H  20)          112.6944         0.323499   
     60. A(C   3,C   4,H  20)          111.1023         0.323112   
     61. A(H  19,C   4,H  20)          105.7742         0.283624   
     62. A(C   4,C   5,C   6)          106.2202         0.367721   
     63. A(C   6,C   5,H  22)          112.2240         0.322028   
     64. A(C   4,C   5,H  22)          109.0672         0.322346   
     65. A(C   6,C   5,H  21)          111.7746         0.320948   
     66. A(C   4,C   5,H  21)          111.9608         0.321264   
     67. A(H  21,C   5,H  22)          105.6671         0.283187   
     68. A(C   5,C   6,C   7)          106.0771         0.366490   
     69. A(H  23,C   6,H  24)          110.2913         0.284464   
     70. A(C   7,C   6,H  24)          110.8776         0.323081   
     71. A(C   5,C   6,H  24)          112.5375         0.323799   
     72. A(C   7,C   6,H  23)          107.9510         0.320003   
     73. A(C   5,C   6,H  23)          108.9183         0.320712   
     74. A(C   6,C   7,C   8)          104.9494         0.367102   
     75. A(H  25,C   7,H  26)          112.0898         0.286417   
     76. A(C   8,C   7,H  26)          108.8923         0.323111   
     77. A(C   6,C   7,H  26)          110.3590         0.321882   
     78. A(C   8,C   7,H  25)          113.2450         0.324750   
     79. A(C   6,C   7,H  25)          107.0458         0.323512   
     80. A(H  27,C   8,H  28)          110.2149         0.283909   
     81. A(C   9,C   8,H  28)          106.3795         0.323929   
     82. A(C   7,C   8,H  28)          105.7656         0.320681   
     83. A(C   9,C   8,H  27)          110.6131         0.327494   
     84. A(C   7,C   8,H  27)          110.9182         0.324197   
     85. A(C   7,C   8,C   9)          112.7285         0.372489   
     86. A(H  30,C   9,H  31)          108.5010         0.287346   
     87. A(H  29,C   9,H  31)          107.9788         0.283867   
     88. A(C   8,C   9,H  31)          111.0441         0.327204   
     89. A(H  29,C   9,H  30)          106.0977         0.284816   
     90. A(C   8,C   9,H  30)          111.3938         0.328363   
     91. A(C   8,C   9,H  29)          111.6184         0.324165   
     92. D(C   2,C   1,C   0,H  11)    171.9078         0.013162   
     93. D(C   2,C   1,C   0,H  12)     48.6094         0.013162   
     94. D(H  13,C   1,C   0,H  11)     52.7085         0.013162   
     95. D(H  14,C   1,C   0,H  11)    -68.8483         0.013162   
     96. D(H  13,C   1,C   0,H  10)    167.2514         0.013162   
     97. D(C   2,C   1,C   0,H  10)    -73.5493         0.013162   
     98. D(H  14,C   1,C   0,H  12)    167.8534         0.013162   
     99. D(H  14,C   1,C   0,H  10)     45.6946         0.013162   
    100. D(H  13,C   1,C   0,H  12)    -70.5898         0.013162   
    101. D(C   3,C   2,C   1,H  13)    169.2940         0.013516   
    102. D(C   3,C   2,C   1,H  14)    -73.6091         0.013516   
    103. D(H  15,C   2,C   1,H  13)    -74.4388         0.013516   
    104. D(H  15,C   2,C   1,H  14)     42.6581         0.013516   
    105. D(C   3,C   2,C   1,C   0)     49.0452         0.013516   
    106. D(H  16,C   2,C   1,H  13)     49.5657         0.013516   
    107. D(H  16,C   2,C   1,H  14)    166.6626         0.013516   
    108. D(H  16,C   2,C   1,C   0)    -70.6831         0.013516   
    109. D(H  15,C   2,C   1,C   0)    165.3124         0.013516   
    110. D(H  18,C   3,C   2,C   1)    -61.5881         0.011792   
    111. D(H  17,C   3,C   2,H  16)   -179.0395         0.011792   
    112. D(H  18,C   3,C   2,H  15)    179.2416         0.011792   
    113. D(H  17,C   3,C   2,H  15)    -60.6320         0.011792   
    114. D(C   4,C   3,C   2,H  15)     60.8331         0.011792   
    115. D(H  17,C   3,C   2,C   1)     58.5383         0.011792   
    116. D(H  18,C   3,C   2,H  16)     60.8341         0.011792   
    117. D(C   4,C   3,C   2,H  16)    -57.5745         0.011792   
    118. D(C   4,C   3,C   2,C   1)   -179.9966         0.011792   
    119. D(C   5,C   4,C   3,H  18)    125.0874         0.011809   
    120. D(C   5,C   4,C   3,H  17)      2.9192         0.011809   
    121. D(H  19,C   4,C   3,C   2)      0.0635         0.011809   
    122. D(C   5,C   4,C   3,C   2)   -116.7128         0.011809   
    123. D(H  20,C   4,C   3,H  18)     -0.9302         0.011809   
    124. D(H  20,C   4,C   3,H  17)   -123.0984         0.011809   
    125. D(H  20,C   4,C   3,C   2)    117.2696         0.011809   
    126. D(H  19,C   4,C   3,H  18)   -118.1363         0.011809   
    127. D(H  19,C   4,C   3,H  17)    119.6955         0.011809   
    128. D(H  22,C   5,C   4,H  20)    100.1326         0.011975   
    129. D(H  22,C   5,C   4,H  19)   -144.8496         0.011975   
    130. D(H  22,C   5,C   4,C   3)    -24.9901         0.011975   
    131. D(H  21,C   5,C   4,H  20)   -143.2872         0.011975   
    132. D(H  21,C   5,C   4,H  19)    -28.2694         0.011975   
    133. D(H  21,C   5,C   4,C   3)     91.5900         0.011975   
    134. D(C   6,C   5,C   4,H  20)    -21.0203         0.011975   
    135. D(C   6,C   5,C   4,H  19)     93.9975         0.011975   
    136. D(C   6,C   5,C   4,C   3)   -146.1431         0.011975   
    137. D(H  24,C   6,C   5,H  22)   -134.5004         0.011838   
    138. D(H  24,C   6,C   5,H  21)    106.9876         0.011838   
    139. D(H  24,C   6,C   5,C   4)    -15.3973         0.011838   
    140. D(H  23,C   6,C   5,H  22)    -11.8755         0.011838   
    141. D(H  23,C   6,C   5,H  21)   -130.3875         0.011838   
    142. D(H  23,C   6,C   5,C   4)    107.2276         0.011838   
    143. D(C   7,C   6,C   5,H  22)    104.0906         0.011838   
    144. D(C   7,C   6,C   5,H  21)    -14.4213         0.011838   
    145. D(C   7,C   6,C   5,C   4)   -136.8063         0.011838   
    146. D(H  26,C   7,C   6,H  23)    -68.2498         0.011537   
    147. D(H  26,C   7,C   6,C   5)    175.1314         0.011537   
    148. D(H  25,C   7,C   6,H  24)    -69.5679         0.011537   
    149. D(H  25,C   7,C   6,H  23)    169.5199         0.011537   
    150. D(H  25,C   7,C   6,C   5)     52.9011         0.011537   
    151. D(C   8,C   7,C   6,H  24)    169.8267         0.011537   
    152. D(C   8,C   7,C   6,H  23)     48.9144         0.011537   
    153. D(H  26,C   7,C   6,H  24)     52.6624         0.011537   
    154. D(C   8,C   7,C   6,C   5)    -67.7043         0.011537   
    155. D(H  28,C   8,C   7,H  26)     67.4514         0.012060   
    156. D(H  28,C   8,C   7,C   6)    -50.7107         0.012060   
    157. D(H  27,C   8,C   7,H  26)   -173.0571         0.012060   
    158. D(H  27,C   8,C   7,H  25)    -47.6358         0.012060   
    159. D(H  27,C   8,C   7,C   6)     68.7809         0.012060   
    160. D(C   9,C   8,C   7,H  26)    -48.3947         0.012060   
    161. D(H  28,C   8,C   7,H  25)   -167.1274         0.012060   
    162. D(C   9,C   8,C   7,H  25)     77.0266         0.012060   
    163. D(C   9,C   8,C   7,C   6)   -166.5568         0.012060   
    164. D(H  31,C   9,C   8,H  28)    147.8173         0.013580   
    165. D(H  31,C   9,C   8,H  27)     28.1244         0.013580   
    166. D(H  31,C   9,C   8,C   7)    -96.7047         0.013580   
    167. D(H  30,C   9,C   8,H  28)    -91.1257         0.013580   
    168. D(H  30,C   9,C   8,H  27)    149.1814         0.013580   
    169. D(H  30,C   9,C   8,C   7)     24.3522         0.013580   
    170. D(H  29,C   9,C   8,H  28)     27.2719         0.013580   
    171. D(H  29,C   9,C   8,H  27)    -92.4210         0.013580   
    172. D(H  29,C   9,C   8,C   7)    142.7498         0.013580   
    -----------------------------------------------------------------

Number of atoms                         .... 32
Number of degrees of freedom            .... 172

Time needed for optimization step       :     1.54 sec

         *************************************************************
         *                GEOMETRY OPTIMIZATION CYCLE   1            *
         *************************************************************
---------------------------------
CARTESIAN COORDINATES (ANGSTROEM)
---------------------------------
  C      4.522128   -0.742890    0.780796
  C      3.742167    0.252526    1.599196
  C      2.636207    0.808115    0.747164
  C      1.849842   -0.293942    0.052037
  C      0.760721    0.366663   -0.780362
  C     -0.616657   -0.033891   -0.278555
  C     -1.513613   -0.098999   -1.505600
  C     -2.824620    0.569958   -1.106365
  C     -3.441809   -0.360731   -0.077164
  C     -4.882863   -0.042901    0.202342
  H      3.878224   -1.646610    0.694901
  H      5.413066   -1.036348    1.356234
  H      4.752924   -0.270329   -0.183130
  H      4.392165    1.080192    1.920682
  H      3.275360   -0.197015    2.504452
  H      1.888919    1.337142    1.390378
  H      3.028020    1.473762   -0.045359
  H      1.428987   -0.968541    0.816097
  H      2.529216   -0.852125   -0.614935
  H      0.806331    1.480389   -0.678957
  H      0.900003    0.157129   -1.855841
  H     -1.007996    0.682155    0.482803
  H     -0.543139   -1.012869    0.240379
  H     -1.730604   -1.169785   -1.739276
  H     -1.068748    0.400327   -2.380653
  H     -2.570877    1.559107   -0.699817
  H     -3.502921    0.639849   -1.979074
  H     -2.856054   -0.358999    0.856212
  H     -3.427432   -1.380041   -0.541229
  H     -5.486157   -0.971417    0.362786
  H     -5.348603    0.480431   -0.642579
  H     -4.982186    0.587572    1.102437

----------------------------
CARTESIAN COORDINATES (A.U.)
----------------------------
  NO LB      ZA    FRAG     MASS         X           Y           Z
   0 C     6.0000    0    12.011    8.545583   -1.403859    1.475491
   1 C     6.0000    0    12.011    7.071671    0.477205    3.022042
   2 C     6.0000    0    12.011    4.981709    1.527116    1.411935
   3 C     6.0000    0    12.011    3.495695   -0.555470    0.098336
   4 C     6.0000    0    12.011    1.437554    0.692893   -1.474670
   5 C     6.0000    0    12.011   -1.165313   -0.064045   -0.526393
   6 C     6.0000    0    12.011   -2.860314   -0.187081   -2.845172
   7 C     6.0000    0    12.011   -5.337758    1.077065   -2.090727
   8 C     6.0000    0    12.011   -6.504076   -0.681683   -0.145819
   9 C     6.0000    0    12.011   -9.227274   -0.081071    0.382371
  10 H     1.0000    0     1.008    7.328781   -3.111642    1.313173
  11 H     1.0000    0     1.008   10.229212   -1.958414    2.562911
  12 H     1.0000    0     1.008    8.981725   -0.510848   -0.346066
  13 H     1.0000    0     1.008    8.299989    2.041267    3.629563
  14 H     1.0000    0     1.008    6.189533   -0.372304    4.732728
  15 H     1.0000    0     1.008    3.569540    2.526832    2.627434
  16 H     1.0000    0     1.008    5.722129    2.785007   -0.085716
  17 H     1.0000    0     1.008    2.700394   -1.830277    1.542200
  18 H     1.0000    0     1.008    4.779526   -1.610283   -1.162059
  19 H     1.0000    0     1.008    1.523745    2.797530   -1.283043
  20 H     1.0000    0     1.008    1.700759    0.296931   -3.507031
  21 H     1.0000    0     1.008   -1.904836    1.289086    0.912365
  22 H     1.0000    0     1.008   -1.026384   -1.914045    0.454250
  23 H     1.0000    0     1.008   -3.270368   -2.210573   -3.286755
  24 H     1.0000    0     1.008   -2.019641    0.756508   -4.498782
  25 H     1.0000    0     1.008   -4.858253    2.946285   -1.322462
  26 H     1.0000    0     1.008   -6.619561    1.209139   -3.739908
  27 H     1.0000    0     1.008   -5.397160   -0.678410    1.618006
  28 H     1.0000    0     1.008   -6.476908   -2.607900   -1.022775
  29 H     1.0000    0     1.008  -10.367334   -1.835712    0.685566
  30 H     1.0000    0     1.008  -10.107395    0.907883   -1.214298
  31 H     1.0000    0     1.008   -9.414967    1.110350    2.083304

--------------------------------
INTERNAL COORDINATES (ANGSTROEM)
--------------------------------
 C      0   0   0     0.000000000000     0.00000000     0.00000000
 C      1   0   0     1.506310304876     0.00000000     0.00000000
 C      2   1   0     1.502592821607   108.50444951     0.00000000
 C      3   2   1     1.521874203278   111.81186985    49.04524803
 C      4   3   2     1.521667379511   107.77714170   180.00337002
 C      5   4   3     1.519678889453   110.71134400   243.28720188
 C      6   5   4     1.521318030402   106.22021524   213.85694143
 C      7   6   5     1.525002100695   106.07707751   223.19372561
 C      8   7   6     1.518670133651   104.94936485   292.29567213
 C      9   8   7     1.501924147170   112.72848425   193.44324757
 H      1   2   3     1.112969069939   106.19756915   286.45067074
 H      1   2   3     1.100462179928   108.13936195   171.90776328
 H      1   2   3     1.098059208701   107.54073402    48.60941874
 H      2   1   3     1.100400679642   110.48223480   240.80076822
 H      2   1   3     1.113321297500   113.08218099   119.24396582
 H      3   2   1     1.118942881236   109.90246012   165.31242189
 H      3   2   1     1.106659866945   111.58563361   289.31690251
 H      4   3   2     1.102719558830   108.88827579    58.53834046
 H      4   3   2     1.103616302049   108.91815144   298.41188062
 H      5   4   3     1.119262636382   110.68668233     0.06350313
 H      5   4   3     1.104517565329   111.10233288   117.26957024
 H      6   5   4     1.116034986549   111.96076722    91.59004759
 H      6   5   4     1.110448250557   109.06723039   335.00986601
 H      7   6   5     1.117261037024   108.91830115   107.22759511
 H      7   6   5     1.101339672994   112.53751874   344.60269279
 H      8   7   6     1.099128077411   107.04583134    52.90110376
 H      8   7   6     1.107518847317   110.35904246   175.13142327
 H      9   8   7     1.101954026820   110.91815333    68.78086617
 H      9   8   7     1.120069595362   105.76562694   309.28931461
 H     10   9   8     1.118860085010   111.61840009   142.74984793
 H     10   9   8     1.097579895071   111.39379923    24.35224239
 H     10   9   8     1.103418447862   111.04405359   263.29525442

---------------------------
INTERNAL COORDINATES (A.U.)
---------------------------
 C      0   0   0     0.000000000000     0.00000000     0.00000000
 C      1   0   0     2.846513948920     0.00000000     0.00000000
 C      2   1   0     2.839488923633   108.50444951     0.00000000
 C      3   2   1     2.875925454475   111.81186985    49.04524803
 C      4   3   2     2.875534614197   107.77714170   180.00337002
 C      5   4   3     2.871776912568   110.71134400   243.28720188
 C      6   5   4     2.874874440056   106.22021524   213.85694143
 C      7   6   5     2.881836323967   106.07707751   223.19372561
 C      8   7   6     2.869870640366   104.94936485   292.29567213
 C      9   8   7     2.838225312074   112.72848425   193.44324757
 H      1   2   3     2.103206737710   106.19756915   286.45067074
 H      1   2   3     2.079572140802   108.13936195   171.90776328
 H      1   2   3     2.075031183275   107.54073402    48.60941874
 H      2   1   3     2.079455922104   110.48223480   240.80076822
 H      2   1   3     2.103872351336   113.08218099   119.24396582
 H      3   2   1     2.114495605037   109.90246012   165.31242189
 H      3   2   1     2.091284071928   111.58563361   289.31690251
 H      4   3   2     2.083837968707   108.88827579    58.53834046
 H      4   3   2     2.085532567804   108.91815144   298.41188062
 H      5   4   3     2.115099854693   110.68668233     0.06350313
 H      5   4   3     2.087235708578   111.10233288   117.26957024
 H      6   5   4     2.109000480452   111.96076722    91.59004759
 H      6   5   4     2.098443079444   109.06723039   335.00986601
 H      7   6   5     2.111317380077   108.91830115   107.22759511
 H      7   6   5     2.081230362381   112.53751874   344.60269279
 H      8   7   6     2.077051052411   107.04583134    52.90110376
 H      8   7   6     2.092907309586   110.35904246   175.13142327
 H      9   8   7     2.082391322862   110.91815333    68.78086617
 H      9   8   7     2.116624786166   105.76562694   309.28931461
 H     10   9   8     2.114339142844   111.61840009   142.74984793
 H     10   9   8     2.074125411783   111.39379923    24.35224239
 H     10   9   8     2.085158677576   111.04405359   263.29525442

---------------------
BASIS SET INFORMATION
---------------------
There are 2 groups of distinct atoms

 Group   1 Type C   : 7s4p1d contracted to 3s2p1d pattern {511/31/1}
 Group   2 Type H   : 4s contracted to 2s pattern {31}

Atom   0C    basis set group =>   1
Atom   1C    basis set group =>   1
Atom   2C    basis set group =>   1
Atom   3C    basis set group =>   1
Atom   4C    basis set group =>   1
Atom   5C    basis set group =>   1
Atom   6C    basis set group =>   1
Atom   7C    basis set group =>   1
Atom   8C    basis set group =>   1
Atom   9C    basis set group =>   1
Atom  10H    basis set group =>   2
Atom  11H    basis set group =>   2
Atom  12H    basis set group =>   2
Atom  13H    basis set group =>   2
Atom  14H    basis set group =>   2
Atom  15H    basis set group =>   2
Atom  16H    basis set group =>   2
Atom  17H    basis set group =>   2
Atom  18H    basis set group =>   2
Atom  19H    basis set group =>   2
Atom  20H    basis set group =>   2
Atom  21H    basis set group =>   2
Atom  22H    basis set group =>   2
Atom  23H    basis set group =>   2
Atom  24H    basis set group =>   2
Atom  25H    basis set group =>   2
Atom  26H    basis set group =>   2
Atom  27H    basis set group =>   2
Atom  28H    basis set group =>   2
Atom  29H    basis set group =>   2
Atom  30H    basis set group =>   2
Atom  31H    basis set group =>   2
---------------------------------
AUXILIARY/J BASIS SET INFORMATION
---------------------------------
There are 2 groups of distinct atoms

 Group   1 Type C   : 12s5p4d2f1g contracted to 6s4p3d1f1g pattern {711111/2111/211/2/1}
 Group   2 Type H   : 5s2p1d contracted to 3s1p1d pattern {311/2/1}

Atom   0C    basis set group =>   1
Atom   1C    basis set group =>   1
Atom   2C    basis set group =>   1
Atom   3C    basis set group =>   1
Atom   4C    basis set group =>   1
Atom   5C    basis set group =>   1
Atom   6C    basis set group =>   1
Atom   7C    basis set group =>   1
Atom   8C    basis set group =>   1
Atom   9C    basis set group =>   1
Atom  10H    basis set group =>   2
Atom  11H    basis set group =>   2
Atom  12H    basis set group =>   2
Atom  13H    basis set group =>   2
Atom  14H    basis set group =>   2
Atom  15H    basis set group =>   2
Atom  16H    basis set group =>   2
Atom  17H    basis set group =>   2
Atom  18H    basis set group =>   2
Atom  19H    basis set group =>   2
Atom  20H    basis set group =>   2
Atom  21H    basis set group =>   2
Atom  22H    basis set group =>   2
Atom  23H    basis set group =>   2
Atom  24H    basis set group =>   2
Atom  25H    basis set group =>   2
Atom  26H    basis set group =>   2
Atom  27H    basis set group =>   2
Atom  28H    basis set group =>   2
Atom  29H    basis set group =>   2
Atom  30H    basis set group =>   2
Atom  31H    basis set group =>   2
------------------------------------------------------------------------------
                           ORCA GTO INTEGRAL CALCULATION
------------------------------------------------------------------------------

                         BASIS SET STATISTICS AND STARTUP INFO

 # of primitive gaussian shells          ...  208
 # of primitive gaussian functions       ...  328
 # of contracted shells                  ...  104
 # of contracted basis functions         ...  184
 Highest angular momentum                ...    2
 Maximum contraction depth               ...    5
 Integral package used                   ... LIBINT
 Integral threshhold            Thresh   ...  1.000e-12
 Primitive cut-off              TCut     ...  1.000e-14


------------------------------ INTEGRAL EVALUATION ----------------------------


 * One electron integrals 
 Pre-screening matrix                    ... done
 Shell pair data                         ... done (   0.002 sec)

-------------------------------------------------------------------------------
                                 ORCA SCF
-------------------------------------------------------------------------------

------------
SCF SETTINGS
------------
Hamiltonian:
 Density Functional     Method          .... DFT(GTOs)
 Exchange Functional    Exchange        .... B88
   X-Alpha parameter    XAlpha          ....  0.666667
   Becke's b parameter  XBeta           ....  0.004200
 Correlation Functional Correlation     .... LYP
 LDA part of GGA corr.  LDAOpt          .... VWN-5
 Gradients option       PostSCFGGA      .... off
 Hybrid DFT is turned on
   Fraction HF Exchange ScalHFX         ....  0.200000
   Scaling of DF-GGA-X  ScalDFX         ....  0.720000
   Scaling of DF-GGA-C  ScalDFC         ....  0.810000
   Scaling of DF-LDA-C  ScalLDAC        ....  1.000000
   Perturbative correction              ....  0.000000
   Density functional embedding theory  .... OFF
   NL short-range parameter             ....  4.800000


General Settings:
 Integral files         IntName         .... orca8
 Hartree-Fock type      HFTyp           .... UHF
 Total Charge           Charge          ....    0
 Multiplicity           Mult            ....    1
 Number of Electrons    NEL             ....   82
 Basis Dimension        Dim             ....  184
 Nuclear Repulsion      ENuc            ....    547.3826650384 Eh

Convergence Acceleration:
 DIIS                   CNVDIIS         .... on
   Start iteration      DIISMaxIt       ....    12
   Startup error        DIISStart       ....  0.200000
   # of expansion vecs  DIISMaxEq       ....     5
   Bias factor          DIISBfac        ....   1.050
   Max. coefficient     DIISMaxC        ....  10.000
 Newton-Raphson         CNVNR           .... off
 SOSCF                  CNVSOSCF        .... off
 Level Shifting         CNVShift        .... on
   Level shift para.    LevelShift      ....    0.2500
   Turn off err/grad.   ShiftErr        ....    0.0010
 Zerner damping         CNVZerner       .... off
 Static damping         CNVDamp         .... on
   Fraction old density DampFac         ....    0.7000
   Max. Damping (<1)    DampMax         ....    0.9800
   Min. Damping (>=0)   DampMin         ....    0.0000
   Turn off err/grad.   DampErr         ....    0.1000
 Fernandez-Rico         CNVRico         .... off

SCF Procedure:
 Maximum # iterations   MaxIter         ....   500
 SCF integral mode      SCFMode         .... Direct
   Integral package                     .... LIBINT
 Reset frequency        DirectResetFreq ....    20
 Integral Threshold     Thresh          ....  1.000e-12 Eh
 Primitive CutOff       TCut            ....  1.000e-14 Eh

Convergence Tolerance:
 Convergence Check Mode ConvCheckMode   .... Total+1el-Energy
 Convergence forced     ConvForced      .... 0
 Energy Change          TolE            ....  1.000e-09 Eh
 1-El. energy change                    ....  1.000e-06 Eh
 DIIS Error             TolErr          ....  1.000e-08


Diagonalization of the overlap matrix:
Smallest eigenvalue                        ... 1.184e-03
Time for diagonalization                   ...    0.004 sec
Threshold for overlap eigenvalues          ... 1.000e-08
Number of eigenvalues below threshold      ... 0
Time for construction of square roots      ...   13.091 sec
Total time needed                          ...   13.094 sec

-------------------
DFT GRID GENERATION
-------------------

General Integration Accuracy     IntAcc      ...  4.340
Radial Grid Type                 RadialGrid  ... Gauss-Chebyshev
Angular Grid (max. acc.)         AngularGrid ... Lebedev-110
Angular grid pruning method      GridPruning ... 3 (G Style)
Weight generation scheme         WeightScheme... Becke
Basis function cutoff            BFCut       ...    1.0000e-12
Integration weight cutoff        WCut        ...    1.0000e-14
Grids for H and He will be reduced by one unit

# of grid points (after initial pruning)     ...  34028 (   0.0 sec)
# of grid points (after weights+screening)   ...  30612 (   0.2 sec)
nearest neighbour list constructed           ...    0.0 sec
Grid point re-assignment to atoms done       ...    0.0 sec
Grid point division into batches done        ...    0.0 sec
Reduced shell lists constructed in    0.6 sec

Total number of grid points                  ...    30612
Total number of batches                      ...      491
Average number of points per batch           ...       62
Average number of grid points per atom       ...      957
Average number of shells per batch           ...    67.56 (64.96%)
Average number of basis functions per batch  ...   115.58 (62.81%)
Average number of large shells per batch     ...    50.32 (74.48%)
Average number of large basis fcns per batch ...    87.00 (75.28%)
Maximum spatial batch extension              ...  19.87, 25.60, 19.02 au
Average spatial batch extension              ...   3.12,  3.62,  3.51 au

Time for grid setup =    2.833 sec

------------------------------
INITIAL GUESS: MODEL POTENTIAL
------------------------------
Loading Hartree-Fock densities                     ... done
Calculating cut-offs                               ... done
Setting up the integral package                    ... done
Initializing the effective Hamiltonian             ... done
Starting the Coulomb interaction                   ... done (   0.2 sec)
Reading the grid                                   ... done
Mapping shells                                     ... done
Starting the XC term evaluation                    ... done (   0.3 sec)
  promolecular density results
     # of electrons  =     81.992065925
     EX              =    -57.995619038
     EC              =     -2.614009725
     EX+EC           =    -60.609628763
Transforming the Hamiltonian                       ... done (   0.0 sec)
Diagonalizing the Hamiltonian                      ... done (   0.0 sec)
Back transforming the eigenvectors                 ... done (   0.0 sec)
Now organizing SCF variables                       ... done
                      ------------------
                      INITIAL GUESS DONE (   3.6 sec)
                      ------------------
--------------
SCF ITERATIONS
--------------
ITER       Energy         Delta-E        Max-DP      RMS-DP      [F,P]     Damp
               ***  Starting incremental Fock matrix formation  ***
  0   -393.2591139293   0.000000000000 0.04263564  0.00143047  0.1749998 0.7000
  1   -393.4427808026  -0.183666873266 0.02623919  0.00101653  0.0909428 0.7000
                               ***Turning on DIIS***
  2   -393.5159776964  -0.073196893879 0.03650078  0.00166393  0.0338162 0.0000
  3   -393.6149746384  -0.098996941992 0.01745994  0.00068756  0.0503590 0.0000
  4   -393.6476337341  -0.032659095673 0.00358612  0.00020732  0.0112998 0.0000
  5   -393.6492833872  -0.001649653068 0.00149126  0.00007230  0.0021284 0.0000
  6   -393.6493795901  -0.000096202942 0.00063855  0.00003763  0.0007467 0.0000
  7   -393.6493878402  -0.000008250039 0.00021910  0.00000426  0.0003497 0.0000
  8   -393.6493885024  -0.000000662231 0.00004502  0.00000117  0.0000592 0.0000
  9   -393.6493885247  -0.000000022265 0.00001762  0.00000048  0.0000345 0.0000
 10   -393.6493885310  -0.000000006305 0.00000465  0.00000013  0.0000081 0.0000
 11   -393.6493885314  -0.000000000422 0.00000091  0.00000004  0.0000019 0.0000
 12   -393.6493885314   0.000000000008 0.00000033  0.00000001  0.0000006 0.0000
 13   -393.6493885313   0.000000000042 0.00000013  0.00000000  0.0000002 0.0000
                 **** Energy Check signals convergence ****

 Fermi smearing  (ALPHA): E(HOMO(Eh)) = -0.273938 MUE = -0.107855 gap=   9.039 eV
 Fermi smearing   (BETA): E(HOMO(Eh)) = -0.273938 MUE = -0.107855 gap=   9.039 eV

N_FOD(alpha) =  0.000000
 N_FOD(beta) =  0.000000
       N_FOD =  0.000000

               *****************************************************
               *                     SUCCESS                       *
               *           SCF CONVERGED AFTER  14 CYCLES          *
               *****************************************************

Setting up the final grid:

General Integration Accuracy     IntAcc      ...  4.670
Radial Grid Type                 RadialGrid  ... Gauss-Chebyshev
Angular Grid (max. acc.)         AngularGrid ... Lebedev-302
Angular grid pruning method      GridPruning ... 3 (G Style)
Weight generation scheme         WeightScheme... Becke
Basis function cutoff            BFCut       ...    1.0000e-12
Integration weight cutoff        WCut        ...    1.0000e-14
Grids for H and He will be reduced by one unit

# of grid points (after initial pruning)     ... 136788 (   0.1 sec)
# of grid points (after weights+screening)   ... 120607 (   0.7 sec)
nearest neighbour list constructed           ...    0.0 sec
Grid point re-assignment to atoms done       ...    0.0 sec
Grid point division into batches done        ...    0.3 sec
Reduced shell lists constructed in    1.0 sec

Total number of grid points                  ...   120607
Total number of batches                      ...     1900
Average number of points per batch           ...       63
Average number of grid points per atom       ...     3769
Average number of shells per batch           ...    62.50 (60.10%)
Average number of basis functions per batch  ...   106.44 (57.85%)
Average number of large shells per batch     ...    46.19 (73.90%)
Average number of large basis fcns per batch ...    79.32 (74.52%)
Maximum spatial batch extension              ...  19.78, 20.35, 19.70 au
Average spatial batch extension              ...   2.11,  2.28,  2.27 au

Final grid set up in    6.0 sec
Final integration                            ... done (  13.8 sec)
Change in XC energy                          ...     0.000153308
Integrated number of electrons               ...    82.000108592
Previous integrated no of electrons          ...    82.000682336

----------------
TOTAL SCF ENERGY
----------------

Total Energy       :         -393.64923522 Eh          -10711.74026 eV

Components:
Nuclear Repulsion  :          547.38266504 Eh           14895.03956 eV
Electronic Energy  :         -941.03190026 Eh          -25606.77983 eV
One Electron Energy:        -1613.73510705 Eh          -43911.96470 eV
Two Electron Energy:          672.70320679 Eh           18305.18487 eV

Virial components:
Potential Energy   :         -783.46000641 Eh          -21319.03061 eV
Kinetic Energy     :          389.81077119 Eh           10607.29035 eV
Virial Ratio       :            2.00984699


DFT components:
N(Alpha)           :       41.000054295830 electrons
N(Beta)            :       41.000054295830 electrons
N(Total)           :       82.000108591660 electrons
E(X)               :      -47.206010333827 Eh       
E(C)               :       -3.093148216380 Eh       
E(XC)              :      -50.299158550207 Eh       
DFET-embed. en.    :        0.000000000000 Eh       

---------------
SCF CONVERGENCE
---------------

  Last Energy change         ...    1.4552e-11  Tolerance :   1.0000e-09
  Last MAX-Density change    ...    3.4862e-08  Tolerance :   1.0000e-08
  Last RMS-Density change    ...    6.8456e-10  Tolerance :   1.0000e-09
  Last DIIS Error            ...    6.6268e-08  Tolerance :   1.0000e-08

             **** THE GBW FILE WAS UPDATED (orca8.gbw) ****
             **** DENSITY FILE WAS UPDATED (orca8.scfp) ****
             **** ENERGY FILE WAS UPDATED (orca8.en.tmp) ****
             **** THE GBW FILE WAS UPDATED (orca8.gbw) ****
             **** DENSITY FILE WAS UPDATED (orca8.scfp) ****
----------------
ORBITAL ENERGIES
----------------
                 SPIN UP ORBITALS
  NO   OCC          E(Eh)            E(eV) 
   0   1.0000     -10.166235      -276.6373 
   1   1.0000     -10.164330      -276.5855 
   2   1.0000     -10.163837      -276.5721 
   3   1.0000     -10.163629      -276.5664 
   4   1.0000     -10.163614      -276.5660 
   5   1.0000     -10.162127      -276.5255 
   6   1.0000     -10.161771      -276.5159 
   7   1.0000     -10.161113      -276.4979 
   8   1.0000     -10.159873      -276.4642 
   9   1.0000     -10.159794      -276.4620 
  10   1.0000      -0.814207       -22.1557 
  11   1.0000      -0.797648       -21.7051 
  12   1.0000      -0.761095       -20.7104 
  13   1.0000      -0.720715       -19.6117 
  14   1.0000      -0.675044       -18.3689 
  15   1.0000      -0.632809       -17.2196 
  16   1.0000      -0.594437       -16.1754 
  17   1.0000      -0.579079       -15.7576 
  18   1.0000      -0.554360       -15.0849 
  19   1.0000      -0.547481       -14.8977 
  20   1.0000      -0.479171       -13.0389 
  21   1.0000      -0.471430       -12.8283 
  22   1.0000      -0.452184       -12.3046 
  23   1.0000      -0.439721       -11.9654 
  24   1.0000      -0.432339       -11.7645 
  25   1.0000      -0.412556       -11.2262 
  26   1.0000      -0.406936       -11.0733 
  27   1.0000      -0.405117       -11.0238 
  28   1.0000      -0.382102       -10.3975 
  29   1.0000      -0.369313       -10.0495 
  30   1.0000      -0.363671        -9.8960 
  31   1.0000      -0.357341        -9.7237 
  32   1.0000      -0.349184        -9.5018 
  33   1.0000      -0.336494        -9.1565 
  34   1.0000      -0.327421        -8.9096 
  35   1.0000      -0.322122        -8.7654 
  36   1.0000      -0.319757        -8.7010 
  37   1.0000      -0.315276        -8.5791 
  38   1.0000      -0.309278        -8.4159 
  39   1.0000      -0.297915        -8.1067 
  40   1.0000      -0.273938        -7.4542 
  41   0.0000       0.058228         1.5845 
  42   0.0000       0.060115         1.6358 
  43   0.0000       0.069568         1.8930 
  44   0.0000       0.074022         2.0142 
  45   0.0000       0.083870         2.2822 
  46   0.0000       0.090988         2.4759 
  47   0.0000       0.095104         2.5879 
  48   0.0000       0.102853         2.7988 
  49   0.0000       0.115988         3.1562 
  50   0.0000       0.118904         3.2355 
  51   0.0000       0.128942         3.5087 
  52   0.0000       0.136930         3.7261 
  53   0.0000       0.137810         3.7500 
  54   0.0000       0.152044         4.1373 
  55   0.0000       0.156943         4.2706 
  56   0.0000       0.163180         4.4404 
  57   0.0000       0.168398         4.5823 
  58   0.0000       0.179047         4.8721 
  59   0.0000       0.185281         5.0417 
  60   0.0000       0.190323         5.1790 
  61   0.0000       0.206255         5.6125 
  62   0.0000       0.216737         5.8977 
  63   0.0000       0.229546         6.2463 
  64   0.0000       0.239065         6.5053 
  65   0.0000       0.245273         6.6742 
  66   0.0000       0.259013         7.0481 
  67   0.0000       0.262657         7.1473 
  68   0.0000       0.270577         7.3628 
  69   0.0000       0.274601         7.4723 
  70   0.0000       0.289868         7.8877 
  71   0.0000       0.297068         8.0836 
  72   0.0000       0.416583        11.3358 
  73   0.0000       0.431712        11.7475 
  74   0.0000       0.442660        12.0454 
  75   0.0000       0.449414        12.2292 
  76   0.0000       0.455101        12.3839 
  77   0.0000       0.461265        12.5517 
  78   0.0000       0.466080        12.6827 
  79   0.0000       0.480889        13.0857 
  80   0.0000       0.500599        13.6220 
  81   0.0000       0.504620        13.7314 
  82   0.0000       0.537675        14.6309 
  83   0.0000       0.548066        14.9136 
  84   0.0000       0.570340        15.5197 
  85   0.0000       0.589751        16.0480 
  86   0.0000       0.612423        16.6649 
  87   0.0000       0.617789        16.8109 
  88   0.0000       0.636308        17.3148 
  89   0.0000       0.641316        17.4511 
  90   0.0000       0.647705        17.6249 
  91   0.0000       0.653026        17.7697 
  92   0.0000       0.656287        17.8585 
  93   0.0000       0.659440        17.9443 
  94   0.0000       0.669790        18.2259 
  95   0.0000       0.675396        18.3785 
  96   0.0000       0.683394        18.5961 
  97   0.0000       0.688960        18.7476 
  98   0.0000       0.692833        18.8529 
  99   0.0000       0.699850        19.0439 
 100   0.0000       0.703287        19.1374 
 101   0.0000       0.707641        19.2559 
 102   0.0000       0.711464        19.3599 
 103   0.0000       0.713712        19.4211 
 104   0.0000       0.716952        19.5093 
 105   0.0000       0.720493        19.6056 
 106   0.0000       0.725742        19.7484 
 107   0.0000       0.728421        19.8213 
 108   0.0000       0.732074        19.9207 
 109   0.0000       0.735315        20.0089 
 110   0.0000       0.737860        20.0782 
 111   0.0000       0.739003        20.1093 
 112   0.0000       0.746311        20.3082 
 113   0.0000       0.749399        20.3922 
 114   0.0000       0.758098        20.6289 
 115   0.0000       0.762893        20.7594 
 116   0.0000       0.765746        20.8370 
 117   0.0000       0.772439        21.0191 
 118   0.0000       0.780941        21.2505 
 119   0.0000       0.788892        21.4668 
 120   0.0000       0.804766        21.8988 
 121   0.0000       0.833187        22.6722 
 122   0.0000       0.855834        23.2884 
 123   0.0000       0.939843        25.5744 
 124   0.0000       0.973283        26.4844 
 125   0.0000       1.002980        27.2925 
 126   0.0000       1.035829        28.1863 
 127   0.0000       1.046012        28.4634 
 128   0.0000       1.114078        30.3156 
 129   0.0000       1.134834        30.8804 
 130   0.0000       1.147264        31.2187 
 131   0.0000       1.165295        31.7093 
 132   0.0000       1.174605        31.9626 
 133   0.0000       1.235507        33.6199 
 134   0.0000       1.387744        37.7624 
 135   0.0000       1.427452        38.8430 
 136   0.0000       1.507322        41.0163 
 137   0.0000       1.548929        42.1485 
 138   0.0000       1.593216        43.3536 
 139   0.0000       1.673145        45.5286 
 140   0.0000       1.713617        46.6299 
 141   0.0000       1.730115        47.0788 
 142   0.0000       1.796148        48.8757 
 143   0.0000       1.808353        49.2078 
 144   0.0000       1.841278        50.1037 
 145   0.0000       1.847569        50.2749 
 146   0.0000       1.864004        50.7221 
 147   0.0000       1.886343        51.3300 
 148   0.0000       1.903945        51.8090 
 149   0.0000       1.922866        52.3238 
 150   0.0000       1.949340        53.0442 
 151   0.0000       1.951845        53.1124 
 152   0.0000       1.960424        53.3458 
 153   0.0000       1.970674        53.6248 
 154   0.0000       2.002079        54.4793 
 155   0.0000       2.010070        54.6968 
 156   0.0000       2.025830        55.1256 
 157   0.0000       2.048098        55.7316 
 158   0.0000       2.082171        56.6588 
 159   0.0000       2.091105        56.9018 
 160   0.0000       2.127472        57.8914 
 161   0.0000       2.162730        58.8509 
 162   0.0000       2.184064        59.4314 
 163   0.0000       2.198603        59.8270 
 164   0.0000       2.213144        60.2227 
 165   0.0000       2.254013        61.3348 
 166   0.0000       2.275031        61.9068 
 167   0.0000       2.298203        62.5373 
 168   0.0000       2.315011        62.9947 
 169   0.0000       2.325314        63.2750 
 170   0.0000       2.355832        64.1054 
 171   0.0000       2.370960        64.5171 
 172   0.0000       2.405800        65.4651 
 173   0.0000       2.416967        65.7690 
 174   0.0000       2.468607        67.1742 
 175   0.0000       2.492831        67.8334 
 176   0.0000       2.545770        69.2739 
 177   0.0000       2.601591        70.7929 
 178   0.0000       2.613211        71.1091 
 179   0.0000       2.664004        72.4912 
 180   0.0000       2.678346        72.8815 
 181   0.0000       2.739921        74.5570 
 182   0.0000       2.810154        76.4682 
 183   0.0000       2.839649        77.2708 

                 SPIN DOWN ORBITALS
  NO   OCC          E(Eh)            E(eV) 
   0   1.0000     -10.166235      -276.6373 
   1   1.0000     -10.164330      -276.5855 
   2   1.0000     -10.163837      -276.5721 
   3   1.0000     -10.163629      -276.5664 
   4   1.0000     -10.163614      -276.5660 
   5   1.0000     -10.162127      -276.5255 
   6   1.0000     -10.161771      -276.5159 
   7   1.0000     -10.161113      -276.4979 
   8   1.0000     -10.159873      -276.4642 
   9   1.0000     -10.159794      -276.4620 
  10   1.0000      -0.814207       -22.1557 
  11   1.0000      -0.797648       -21.7051 
  12   1.0000      -0.761095       -20.7104 
  13   1.0000      -0.720715       -19.6117 
  14   1.0000      -0.675044       -18.3689 
  15   1.0000      -0.632809       -17.2196 
  16   1.0000      -0.594437       -16.1754 
  17   1.0000      -0.579079       -15.7576 
  18   1.0000      -0.554360       -15.0849 
  19   1.0000      -0.547481       -14.8977 
  20   1.0000      -0.479171       -13.0389 
  21   1.0000      -0.471430       -12.8283 
  22   1.0000      -0.452184       -12.3046 
  23   1.0000      -0.439721       -11.9654 
  24   1.0000      -0.432339       -11.7645 
  25   1.0000      -0.412556       -11.2262 
  26   1.0000      -0.406936       -11.0733 
  27   1.0000      -0.405117       -11.0238 
  28   1.0000      -0.382102       -10.3975 
  29   1.0000      -0.369313       -10.0495 
  30   1.0000      -0.363671        -9.8960 
  31   1.0000      -0.357341        -9.7237 
  32   1.0000      -0.349184        -9.5018 
  33   1.0000      -0.336494        -9.1565 
  34   1.0000      -0.327421        -8.9096 
  35   1.0000      -0.322122        -8.7654 
  36   1.0000      -0.319757        -8.7010 
  37   1.0000      -0.315276        -8.5791 
  38   1.0000      -0.309278        -8.4159 
  39   1.0000      -0.297915        -8.1067 
  40   1.0000      -0.273938        -7.4542 
  41   0.0000       0.058228         1.5845 
  42   0.0000       0.060115         1.6358 
  43   0.0000       0.069568         1.8930 
  44   0.0000       0.074022         2.0142 
  45   0.0000       0.083870         2.2822 
  46   0.0000       0.090988         2.4759 
  47   0.0000       0.095104         2.5879 
  48   0.0000       0.102853         2.7988 
  49   0.0000       0.115988         3.1562 
  50   0.0000       0.118904         3.2355 
  51   0.0000       0.128942         3.5087 
  52   0.0000       0.136930         3.7261 
  53   0.0000       0.137810         3.7500 
  54   0.0000       0.152044         4.1373 
  55   0.0000       0.156943         4.2706 
  56   0.0000       0.163180         4.4404 
  57   0.0000       0.168398         4.5823 
  58   0.0000       0.179047         4.8721 
  59   0.0000       0.185281         5.0417 
  60   0.0000       0.190323         5.1790 
  61   0.0000       0.206255         5.6125 
  62   0.0000       0.216737         5.8977 
  63   0.0000       0.229546         6.2463 
  64   0.0000       0.239065         6.5053 
  65   0.0000       0.245273         6.6742 
  66   0.0000       0.259013         7.0481 
  67   0.0000       0.262657         7.1473 
  68   0.0000       0.270577         7.3628 
  69   0.0000       0.274601         7.4723 
  70   0.0000       0.289868         7.8877 
  71   0.0000       0.297068         8.0836 
  72   0.0000       0.416583        11.3358 
  73   0.0000       0.431712        11.7475 
  74   0.0000       0.442660        12.0454 
  75   0.0000       0.449414        12.2292 
  76   0.0000       0.455101        12.3839 
  77   0.0000       0.461265        12.5517 
  78   0.0000       0.466080        12.6827 
  79   0.0000       0.480889        13.0857 
  80   0.0000       0.500599        13.6220 
  81   0.0000       0.504620        13.7314 
  82   0.0000       0.537675        14.6309 
  83   0.0000       0.548066        14.9136 
  84   0.0000       0.570340        15.5197 
  85   0.0000       0.589751        16.0480 
  86   0.0000       0.612423        16.6649 
  87   0.0000       0.617789        16.8109 
  88   0.0000       0.636308        17.3148 
  89   0.0000       0.641316        17.4511 
  90   0.0000       0.647705        17.6249 
  91   0.0000       0.653026        17.7697 
  92   0.0000       0.656287        17.8585 
  93   0.0000       0.659440        17.9443 
  94   0.0000       0.669790        18.2259 
  95   0.0000       0.675396        18.3785 
  96   0.0000       0.683394        18.5961 
  97   0.0000       0.688960        18.7476 
  98   0.0000       0.692833        18.8529 
  99   0.0000       0.699850        19.0439 
 100   0.0000       0.703287        19.1374 
 101   0.0000       0.707641        19.2559 
 102   0.0000       0.711464        19.3599 
 103   0.0000       0.713712        19.4211 
 104   0.0000       0.716952        19.5093 
 105   0.0000       0.720493        19.6056 
 106   0.0000       0.725742        19.7484 
 107   0.0000       0.728421        19.8213 
 108   0.0000       0.732074        19.9207 
 109   0.0000       0.735315        20.0089 
 110   0.0000       0.737860        20.0782 
 111   0.0000       0.739003        20.1093 
 112   0.0000       0.746311        20.3082 
 113   0.0000       0.749399        20.3922 
 114   0.0000       0.758098        20.6289 
 115   0.0000       0.762893        20.7594 
 116   0.0000       0.765746        20.8370 
 117   0.0000       0.772439        21.0191 
 118   0.0000       0.780941        21.2505 
 119   0.0000       0.788892        21.4668 
 120   0.0000       0.804766        21.8988 
 121   0.0000       0.833187        22.6722 
 122   0.0000       0.855834        23.2884 
 123   0.0000       0.939843        25.5744 
 124   0.0000       0.973283        26.4844 
 125   0.0000       1.002980        27.2925 
 126   0.0000       1.035829        28.1863 
 127   0.0000       1.046012        28.4634 
 128   0.0000       1.114078        30.3156 
 129   0.0000       1.134834        30.8804 
 130   0.0000       1.147264        31.2187 
 131   0.0000       1.165295        31.7093 
 132   0.0000       1.174605        31.9626 
 133   0.0000       1.235507        33.6199 
 134   0.0000       1.387744        37.7624 
 135   0.0000       1.427452        38.8430 
 136   0.0000       1.507322        41.0163 
 137   0.0000       1.548929        42.1485 
 138   0.0000       1.593216        43.3536 
 139   0.0000       1.673145        45.5286 
 140   0.0000       1.713617        46.6299 
 141   0.0000       1.730115        47.0788 
 142   0.0000       1.796148        48.8757 
 143   0.0000       1.808353        49.2078 
 144   0.0000       1.841278        50.1037 
 145   0.0000       1.847569        50.2749 
 146   0.0000       1.864004        50.7221 
 147   0.0000       1.886343        51.3300 
 148   0.0000       1.903945        51.8090 
 149   0.0000       1.922866        52.3238 
 150   0.0000       1.949340        53.0442 
 151   0.0000       1.951845        53.1124 
 152   0.0000       1.960424        53.3458 
 153   0.0000       1.970674        53.6248 
 154   0.0000       2.002079        54.4793 
 155   0.0000       2.010070        54.6968 
 156   0.0000       2.025830        55.1256 
 157   0.0000       2.048098        55.7316 
 158   0.0000       2.082171        56.6588 
 159   0.0000       2.091105        56.9018 
 160   0.0000       2.127472        57.8914 
 161   0.0000       2.162730        58.8509 
 162   0.0000       2.184064        59.4314 
 163   0.0000       2.198603        59.8270 
 164   0.0000       2.213144        60.2227 
 165   0.0000       2.254013        61.3348 
 166   0.0000       2.275031        61.9068 
 167   0.0000       2.298203        62.5373 
 168   0.0000       2.315011        62.9947 
 169   0.0000       2.325314        63.2750 
 170   0.0000       2.355832        64.1054 
 171   0.0000       2.370960        64.5171 
 172   0.0000       2.405800        65.4651 
 173   0.0000       2.416967        65.7690 
 174   0.0000       2.468607        67.1742 
 175   0.0000       2.492831        67.8334 
 176   0.0000       2.545770        69.2739 
 177   0.0000       2.601591        70.7929 
 178   0.0000       2.613211        71.1091 
 179   0.0000       2.664004        72.4912 
 180   0.0000       2.678346        72.8815 
 181   0.0000       2.739921        74.5570 
 182   0.0000       2.810154        76.4682 
 183   0.0000       2.839649        77.2708 

                    ********************************
                    * MULLIKEN POPULATION ANALYSIS *
                    ********************************

------------------------------------------
FOD BASED MULLIKEN REDUCED ORBITAL CHARGES
------------------------------------------
  0 C s       :    -0.000000  s :    -0.000000
      pz      :     0.000000  p :     0.000000
      px      :     0.000000
      py      :     0.000000
      dz2     :     0.000000  d :     0.000000
      dxz     :     0.000000
      dyz     :     0.000000
      dx2y2   :     0.000000
      dxy     :     0.000000
  1 C s       :    -0.000000  s :    -0.000000
      pz      :     0.000000  p :     0.000000
      px      :     0.000000
      py      :     0.000000
      dz2     :     0.000000  d :     0.000000
      dxz     :     0.000000
      dyz     :     0.000000
      dx2y2   :     0.000000
      dxy     :     0.000000
  2 C s       :    -0.000000  s :    -0.000000
      pz      :     0.000000  p :     0.000000
      px      :     0.000000
      py      :     0.000000
      dz2     :     0.000000  d :     0.000000
      dxz     :     0.000000
      dyz     :     0.000000
      dx2y2   :     0.000000
      dxy     :     0.000000
  3 C s       :    -0.000000  s :    -0.000000
      pz      :     0.000000  p :     0.000000
      px      :     0.000000
      py      :     0.000000
      dz2     :     0.000000  d :     0.000000
      dxz     :     0.000000
      dyz     :     0.000000
      dx2y2   :     0.000000
      dxy     :     0.000000
  4 C s       :    -0.000000  s :    -0.000000
      pz      :     0.000000  p :     0.000000
      px      :     0.000000
      py      :     0.000000
      dz2     :     0.000000  d :     0.000000
      dxz     :     0.000000
      dyz     :     0.000000
      dx2y2   :     0.000000
      dxy     :     0.000000
  5 C s       :    -0.000000  s :    -0.000000
      pz      :     0.000000  p :     0.000000
      px      :     0.000000
      py      :     0.000000
      dz2     :     0.000000  d :     0.000000
      dxz     :     0.000000
      dyz     :     0.000000
      dx2y2   :     0.000000
      dxy     :     0.000000
  6 C s       :    -0.000000  s :    -0.000000
      pz      :     0.000000  p :     0.000000
      px      :     0.000000
      py      :     0.000000
      dz2     :     0.000000  d :     0.000000
      dxz     :     0.000000
      dyz     :     0.000000
      dx2y2   :     0.000000
      dxy     :     0.000000
  7 C s       :    -0.000000  s :    -0.000000
      pz      :     0.000000  p :     0.000000
      px      :     0.000000
      py      :     0.000000
      dz2     :     0.000000  d :     0.000000
      dxz     :     0.000000
      dyz     :     0.000000
      dx2y2   :     0.000000
      dxy     :     0.000000
  8 C s       :    -0.000000  s :    -0.000000
      pz      :     0.000000  p :     0.000000
      px      :     0.000000
      py      :     0.000000
      dz2     :     0.000000  d :     0.000000
      dxz     :     0.000000
      dyz     :     0.000000
      dx2y2   :     0.000000
      dxy     :     0.000000
  9 C s       :    -0.000000  s :    -0.000000
      pz      :     0.000000  p :     0.000000
      px      :     0.000000
      py      :     0.000000
      dz2     :     0.000000  d :     0.000000
      dxz     :     0.000000
      dyz     :     0.000000
      dx2y2   :     0.000000
      dxy     :     0.000000
 10 H s       :     0.000000  s :     0.000000
 11 H s       :     0.000000  s :     0.000000
 12 H s       :     0.000000  s :     0.000000
 13 H s       :     0.000000  s :     0.000000
 14 H s       :     0.000000  s :     0.000000
 15 H s       :     0.000000  s :     0.000000
 16 H s       :     0.000000  s :     0.000000
 17 H s       :     0.000000  s :     0.000000
 18 H s       :     0.000000  s :     0.000000
 19 H s       :     0.000000  s :     0.000000
 20 H s       :     0.000000  s :     0.000000
 21 H s       :     0.000000  s :     0.000000
 22 H s       :     0.000000  s :     0.000000
 23 H s       :     0.000000  s :     0.000000
 24 H s       :     0.000000  s :     0.000000
 25 H s       :     0.000000  s :     0.000000
 26 H s       :     0.000000  s :     0.000000
 27 H s       :     0.000000  s :     0.000000
 28 H s       :     0.000000  s :     0.000000
 29 H s       :     0.000000  s :     0.000000
 30 H s       :     0.000000  s :     0.000000
 31 H s       :     0.000000  s :     0.000000


                     *******************************
                     * LOEWDIN POPULATION ANALYSIS *
                     *******************************

-------------------------------------------
LOEWDIN ATOMIC CHARGES AND SPIN POPULATIONS
-------------------------------------------
   0 C :   -0.316277    0.000000
   1 C :   -0.223900    0.000000
   2 C :   -0.213962    0.000000
   3 C :   -0.219140    0.000000
   4 C :   -0.208631    0.000000
   5 C :   -0.211348    0.000000
   6 C :   -0.206511    0.000000
   7 C :   -0.211690    0.000000
   8 C :   -0.220815    0.000000
   9 C :   -0.321167    0.000000
  10 H :    0.114354    0.000000
  11 H :    0.108851    0.000000
  12 H :    0.113103    0.000000
  13 H :    0.104828    0.000000
  14 H :    0.103891    0.000000
  15 H :    0.103071    0.000000
  16 H :    0.105031    0.000000
  17 H :    0.104953    0.000000
  18 H :    0.109493    0.000000
  19 H :    0.108284    0.000000
  20 H :    0.106485    0.000000
  21 H :    0.104998    0.000000
  22 H :    0.104155    0.000000
  23 H :    0.106832    0.000000
  24 H :    0.103152    0.000000
  25 H :    0.106517    0.000000
  26 H :    0.101359    0.000000
  27 H :    0.112509    0.000000
  28 H :    0.105328    0.000000
  29 H :    0.108614    0.000000
  30 H :    0.108540    0.000000
  31 H :    0.109096    0.000000

----------------------------------------------------
LOEWDIN REDUCED ORBITAL CHARGES AND SPIN POPULATIONS
----------------------------------------------------
CHARGE
  0 C s       :     2.947948  s :     2.947948
      pz      :     1.099304  p :     3.291773
      px      :     1.096693
      py      :     1.095776
      dz2     :     0.015138  d :     0.076557
      dxz     :     0.015610
      dyz     :     0.015364
      dx2y2   :     0.009805
      dxy     :     0.020640
  1 C s       :     2.899956  s :     2.899956
      pz      :     1.076333  p :     3.227137
      px      :     1.071975
      py      :     1.078829
      dz2     :     0.013826  d :     0.096807
      dxz     :     0.024341
      dyz     :     0.021147
      dx2y2   :     0.010298
      dxy     :     0.027194
  2 C s       :     2.910287  s :     2.910287
      pz      :     1.071494  p :     3.206648
      px      :     1.060581
      py      :     1.074573
      dz2     :     0.007957  d :     0.097027
      dxz     :     0.027207
      dyz     :     0.026782
      dx2y2   :     0.010781
      dxy     :     0.024299
  3 C s       :     2.910193  s :     2.910193
      pz      :     1.074671  p :     3.217191
      px      :     1.062155
      py      :     1.080366
      dz2     :     0.007059  d :     0.091756
      dxz     :     0.023772
      dyz     :     0.027513
      dx2y2   :     0.009759
      dxy     :     0.023653
  4 C s       :     2.908940  s :     2.908940
      pz      :     1.077367  p :     3.208066
      px      :     1.047711
      py      :     1.082988
      dz2     :     0.027062  d :     0.091625
      dxz     :     0.018663
      dyz     :     0.006408
      dx2y2   :     0.026333
      dxy     :     0.013160
  5 C s       :     2.912276  s :     2.912276
      pz      :     1.066761  p :     3.207690
      px      :     1.053742
      py      :     1.087188
      dz2     :     0.011825  d :     0.091382
      dxz     :     0.023241
      dyz     :     0.024729
      dx2y2   :     0.020736
      dxy     :     0.010852
  6 C s       :     2.913017  s :     2.913017
      pz      :     1.064884  p :     3.200972
      px      :     1.054921
      py      :     1.081167
      dz2     :     0.018675  d :     0.092522
      dxz     :     0.024957
      dyz     :     0.014776
      dx2y2   :     0.020364
      dxy     :     0.013751
  7 C s       :     2.913631  s :     2.913631
      pz      :     1.071600  p :     3.204464
      px      :     1.057993
      py      :     1.074871
      dz2     :     0.013206  d :     0.093595
      dxz     :     0.026065
      dyz     :     0.017192
      dx2y2   :     0.021505
      dxy     :     0.015625
  8 C s       :     2.905327  s :     2.905327
      pz      :     1.080090  p :     3.220799
      px      :     1.064023
      py      :     1.076686
      dz2     :     0.015188  d :     0.094688
      dxz     :     0.024565
      dyz     :     0.016663
      dx2y2   :     0.026504
      dxy     :     0.011769
  9 C s       :     2.946045  s :     2.946045
      pz      :     1.109842  p :     3.299250
      px      :     1.078745
      py      :     1.110663
      dz2     :     0.012410  d :     0.075871
      dxz     :     0.013475
      dyz     :     0.017904
      dx2y2   :     0.012719
      dxy     :     0.019364
 10 H s       :     0.885646  s :     0.885646
 11 H s       :     0.891149  s :     0.891149
 12 H s       :     0.886897  s :     0.886897
 13 H s       :     0.895172  s :     0.895172
 14 H s       :     0.896109  s :     0.896109
 15 H s       :     0.896929  s :     0.896929
 16 H s       :     0.894969  s :     0.894969
 17 H s       :     0.895047  s :     0.895047
 18 H s       :     0.890507  s :     0.890507
 19 H s       :     0.891716  s :     0.891716
 20 H s       :     0.893515  s :     0.893515
 21 H s       :     0.895002  s :     0.895002
 22 H s       :     0.895845  s :     0.895845
 23 H s       :     0.893168  s :     0.893168
 24 H s       :     0.896848  s :     0.896848
 25 H s       :     0.893483  s :     0.893483
 26 H s       :     0.898641  s :     0.898641
 27 H s       :     0.887491  s :     0.887491
 28 H s       :     0.894672  s :     0.894672
 29 H s       :     0.891386  s :     0.891386
 30 H s       :     0.891460  s :     0.891460
 31 H s       :     0.890904  s :     0.890904

SPIN
  0 C s       :     0.000000  s :     0.000000
      pz      :     0.000000  p :     0.000000
      px      :     0.000000
      py      :     0.000000
      dz2     :     0.000000  d :     0.000000
      dxz     :     0.000000
      dyz     :     0.000000
      dx2y2   :     0.000000
      dxy     :     0.000000
  1 C s       :     0.000000  s :     0.000000
      pz      :     0.000000  p :     0.000000
      px      :     0.000000
      py      :     0.000000
      dz2     :     0.000000  d :     0.000000
      dxz     :     0.000000
      dyz     :     0.000000
      dx2y2   :     0.000000
      dxy     :     0.000000
  2 C s       :     0.000000  s :     0.000000
      pz      :     0.000000  p :     0.000000
      px      :     0.000000
      py      :     0.000000
      dz2     :     0.000000  d :     0.000000
      dxz     :     0.000000
      dyz     :     0.000000
      dx2y2   :     0.000000
      dxy     :     0.000000
  3 C s       :     0.000000  s :     0.000000
      pz      :     0.000000  p :     0.000000
      px      :     0.000000
      py      :     0.000000
      dz2     :     0.000000  d :     0.000000
      dxz     :     0.000000
      dyz     :     0.000000
      dx2y2   :     0.000000
      dxy     :     0.000000
  4 C s       :     0.000000  s :     0.000000
      pz      :     0.000000  p :     0.000000
      px      :     0.000000
      py      :     0.000000
      dz2     :     0.000000  d :     0.000000
      dxz     :     0.000000
      dyz     :     0.000000
      dx2y2   :     0.000000
      dxy     :     0.000000
  5 C s       :     0.000000  s :     0.000000
      pz      :     0.000000  p :     0.000000
      px      :     0.000000
      py      :     0.000000
      dz2     :     0.000000  d :     0.000000
      dxz     :     0.000000
      dyz     :     0.000000
      dx2y2   :     0.000000
      dxy     :     0.000000
  6 C s       :     0.000000  s :     0.000000
      pz      :     0.000000  p :     0.000000
      px      :     0.000000
      py      :     0.000000
      dz2     :     0.000000  d :     0.000000
      dxz     :     0.000000
      dyz     :     0.000000
      dx2y2   :     0.000000
      dxy     :     0.000000
  7 C s       :     0.000000  s :     0.000000
      pz      :     0.000000  p :     0.000000
      px      :     0.000000
      py      :     0.000000
      dz2     :     0.000000  d :     0.000000
      dxz     :     0.000000
      dyz     :     0.000000
      dx2y2   :     0.000000
      dxy     :     0.000000
  8 C s       :     0.000000  s :     0.000000
      pz      :     0.000000  p :     0.000000
      px      :     0.000000
      py      :     0.000000
      dz2     :     0.000000  d :     0.000000
      dxz     :     0.000000
      dyz     :     0.000000
      dx2y2   :     0.000000
      dxy     :     0.000000
  9 C s       :     0.000000  s :     0.000000
      pz      :     0.000000  p :     0.000000
      px      :     0.000000
      py      :     0.000000
      dz2     :     0.000000  d :     0.000000
      dxz     :     0.000000
      dyz     :     0.000000
      dx2y2   :     0.000000
      dxy     :     0.000000
 10 H s       :     0.000000  s :     0.000000
 11 H s       :     0.000000  s :     0.000000
 12 H s       :     0.000000  s :     0.000000
 13 H s       :     0.000000  s :     0.000000
 14 H s       :     0.000000  s :     0.000000
 15 H s       :     0.000000  s :     0.000000
 16 H s       :     0.000000  s :     0.000000
 17 H s       :     0.000000  s :     0.000000
 18 H s       :     0.000000  s :     0.000000
 19 H s       :     0.000000  s :     0.000000
 20 H s       :     0.000000  s :     0.000000
 21 H s       :     0.000000  s :     0.000000
 22 H s       :     0.000000  s :     0.000000
 23 H s       :     0.000000  s :     0.000000
 24 H s       :     0.000000  s :     0.000000
 25 H s       :     0.000000  s :     0.000000
 26 H s       :     0.000000  s :     0.000000
 27 H s       :     0.000000  s :     0.000000
 28 H s       :     0.000000  s :     0.000000
 29 H s       :     0.000000  s :     0.000000
 30 H s       :     0.000000  s :     0.000000
 31 H s       :     0.000000  s :     0.000000


                      *****************************
                      * MAYER POPULATION ANALYSIS *
                      *****************************

  NA   - Mulliken gross atomic population
  ZA   - Total nuclear charge
  QA   - Mulliken gross atomic charge
  VA   - Mayer's total valence
  BVA  - Mayer's bonded valence
  FA   - Mayer's free valence

  ATOM       NA         ZA         QA         VA         BVA        FA
  0 C      6.2570     6.0000    -0.2570     4.0357     4.0357    -0.0000
  1 C      6.0990     6.0000    -0.0990     4.0979     4.0979    -0.0000
  2 C      6.2132     6.0000    -0.2132     4.1545     4.1545     0.0000
  3 C      6.1674     6.0000    -0.1674     4.0706     4.0706     0.0000
  4 C      6.1024     6.0000    -0.1024     4.0500     4.0500     0.0000
  5 C      6.2196     6.0000    -0.2196     4.0930     4.0930     0.0000
  6 C      6.1032     6.0000    -0.1032     4.0506     4.0506     0.0000
  7 C      6.1526     6.0000    -0.1526     4.1154     4.1154     0.0000
  8 C      6.1929     6.0000    -0.1929     4.1546     4.1546    -0.0000
  9 C      6.2186     6.0000    -0.2186     3.9890     3.9890    -0.0000
 10 H      0.8953     1.0000     0.1047     0.9562     0.9562     0.0000
 11 H      0.9148     1.0000     0.0852     0.9498     0.9498     0.0000
 12 H      0.9069     1.0000     0.0931     0.9607     0.9607     0.0000
 13 H      0.9339     1.0000     0.0661     0.9471     0.9471     0.0000
 14 H      0.9352     1.0000     0.0648     0.9521     0.9521     0.0000
 15 H      0.9296     1.0000     0.0704     0.9458     0.9458     0.0000
 16 H      0.9224     1.0000     0.0776     0.9488     0.9488     0.0000
 17 H      0.9232     1.0000     0.0768     0.9612     0.9612     0.0000
 18 H      0.9229     1.0000     0.0771     0.9566     0.9566     0.0000
 19 H      0.9276     1.0000     0.0724     0.9587     0.9587     0.0000
 20 H      0.9226     1.0000     0.0774     0.9531     0.9531     0.0000
 21 H      0.9130     1.0000     0.0870     0.9542     0.9542     0.0000
 22 H      0.9194     1.0000     0.0806     0.9498     0.9498     0.0000
 23 H      0.9310     1.0000     0.0690     0.9558     0.9558     0.0000
 24 H      0.9236     1.0000     0.0764     0.9520     0.9520     0.0000
 25 H      0.9246     1.0000     0.0754     0.9500     0.9500     0.0000
 26 H      0.9354     1.0000     0.0646     0.9529     0.9529     0.0000
 27 H      0.9078     1.0000     0.0922     0.9542     0.9542     0.0000
 28 H      0.9361     1.0000     0.0639     0.9546     0.9546     0.0000
 29 H      0.9147     1.0000     0.0853     0.9531     0.9531     0.0000
 30 H      0.9167     1.0000     0.0833     0.9653     0.9653     0.0000
 31 H      0.9176     1.0000     0.0824     0.9564     0.9564     0.0000

  Mayer bond orders larger than 0.100000
B(  0-C ,  1-C ) :   1.1419 B(  0-C , 10-H ) :   0.9483 B(  0-C , 11-H ) :   0.9514 
B(  0-C , 12-H ) :   0.9553 B(  1-C ,  2-C ) :   1.1132 B(  1-C , 13-H ) :   0.9324 
[...]
      px      :     0.000000
      py      :     0.000000
      dz2     :     0.000000  d :     0.000000
      dxz     :     0.000000
      dyz     :     0.000000
      dx2y2   :     0.000000
      dxy     :     0.000000
  9 C s       :    -0.000000  s :    -0.000000
      pz      :     0.000000  p :     0.000000
      px      :     0.000000
      py      :     0.000000
      dz2     :     0.000000  d :     0.000000
      dxz     :     0.000000
      dyz     :     0.000000
      dx2y2   :     0.000000
      dxy     :     0.000000
 10 H s       :     0.000000  s :     0.000000
 11 H s       :     0.000000  s :     0.000000
 12 H s       :     0.000000  s :     0.000000
 13 H s       :     0.000000  s :     0.000000
 14 H s       :     0.000000  s :     0.000000
 15 H s       :     0.000000  s :     0.000000
 16 H s       :     0.000000  s :     0.000000
 17 H s       :     0.000000  s :     0.000000
 18 H s       :     0.000000  s :     0.000000
 19 H s       :     0.000000  s :     0.000000
 20 H s       :     0.000000  s :     0.000000
 21 H s       :     0.000000  s :     0.000000
 22 H s       :     0.000000  s :     0.000000
 23 H s       :     0.000000  s :     0.000000
 24 H s       :     0.000000  s :     0.000000
 25 H s       :     0.000000  s :     0.000000
 26 H s       :     0.000000  s :     0.000000
 27 H s       :     0.000000  s :     0.000000
 28 H s       :     0.000000  s :     0.000000
 29 H s       :     0.000000  s :     0.000000
 30 H s       :     0.000000  s :     0.000000
 31 H s       :     0.000000  s :     0.000000


                     *******************************
                     * LOEWDIN POPULATION ANALYSIS *
                     *******************************

-------------------------------------------
LOEWDIN ATOMIC CHARGES AND SPIN POPULATIONS
-------------------------------------------
   0 C :   -0.323843    0.000000
   1 C :   -0.216523    0.000000
   2 C :   -0.213464    0.000000
   3 C :   -0.211565    0.000000
   4 C :   -0.207405    0.000000
   5 C :   -0.216123    0.000000
   6 C :   -0.208919    0.000000
   7 C :   -0.210560    0.000000
   8 C :   -0.219710    0.000000
   9 C :   -0.320582    0.000000
  10 H :    0.109125    0.000000
  11 H :    0.112005    0.000000
  12 H :    0.108804    0.000000
  13 H :    0.107537    0.000000
  14 H :    0.105201    0.000000
  15 H :    0.107222    0.000000
  16 H :    0.103820    0.000000
  17 H :    0.103992    0.000000
  18 H :    0.107167    0.000000
  19 H :    0.104193    0.000000
  20 H :    0.106402    0.000000
  21 H :    0.105720    0.000000
  22 H :    0.105844    0.000000
  23 H :    0.104158    0.000000
  24 H :    0.106617    0.000000
  25 H :    0.103915    0.000000
  26 H :    0.106272    0.000000
  27 H :    0.106503    0.000000
  28 H :    0.105198    0.000000
  29 H :    0.110898    0.000000
  30 H :    0.108847    0.000000
  31 H :    0.109254    0.000000

----------------------------------------------------
LOEWDIN REDUCED ORBITAL CHARGES AND SPIN POPULATIONS
----------------------------------------------------
CHARGE
  0 C s       :     2.952293  s :     2.952293
      pz      :     1.107636  p :     3.298332
      px      :     1.078154
      py      :     1.112543
      dz2     :     0.003177  d :     0.073218
      dxz     :     0.021362
      dyz     :     0.022457
      dx2y2   :     0.017673
      dxy     :     0.008548
  1 C s       :     2.911298  s :     2.911298
      pz      :     1.073571  p :     3.214687
      px      :     1.052677
      py      :     1.088438
      dz2     :     0.006545  d :     0.090539
      dxz     :     0.022471
      dyz     :     0.028088
      dx2y2   :     0.021161
      dxy     :     0.012275
  2 C s       :     2.913613  s :     2.913613
      pz      :     1.069033  p :     3.209971
      px      :     1.065314
      py      :     1.075624
      dz2     :     0.007048  d :     0.089880
      dxz     :     0.025218
      dyz     :     0.026542
      dx2y2   :     0.016465
      dxy     :     0.014606
  3 C s       :     2.911534  s :     2.911534
      pz      :     1.068979  p :     3.210002
      px      :     1.065142
      py      :     1.075880
      dz2     :     0.007285  d :     0.090029
      dxz     :     0.025053
      dyz     :     0.026579
      dx2y2   :     0.016242
      dxy     :     0.014869
  4 C s       :     2.911856  s :     2.911856
      pz      :     1.071727  p :     3.205224
      px      :     1.045897
      py      :     1.087600
      dz2     :     0.006835  d :     0.090326
      dxz     :     0.022113
      dyz     :     0.028193
      dx2y2   :     0.020853
      dxy     :     0.012332
  5 C s       :     2.912742  s :     2.912742
      pz      :     1.079057  p :     3.213588
      px      :     1.042769
      py      :     1.091762
      dz2     :     0.006983  d :     0.089792
      dxz     :     0.022174
      dyz     :     0.028800
      dx2y2   :     0.021407
      dxy     :     0.010428
  6 C s       :     2.912127  s :     2.912127
      pz      :     1.073588  p :     3.206668
      px      :     1.044843
      py      :     1.088237
      dz2     :     0.007247  d :     0.090124
      dxz     :     0.022800
      dyz     :     0.027162
      dx2y2   :     0.021051
      dxy     :     0.011866
  7 C s       :     2.913574  s :     2.913574
      pz      :     1.076378  p :     3.206905
      px      :     1.054190
      py      :     1.076337
      dz2     :     0.008429  d :     0.090081
      dxz     :     0.025351
      dyz     :     0.022348
      dx2y2   :     0.020338
      dxy     :     0.013616
  8 C s       :     2.911769  s :     2.911769
      pz      :     1.081071  p :     3.217443
      px      :     1.057705
      py      :     1.078667
      dz2     :     0.009951  d :     0.090499
      dxz     :     0.024147
      dyz     :     0.021364
      dx2y2   :     0.021603
      dxy     :     0.013433
  9 C s       :     2.952712  s :     2.952712
      pz      :     1.107707  p :     3.294559
      px      :     1.077543
      py      :     1.109309
      dz2     :     0.004591  d :     0.073311
      dxz     :     0.021440
      dyz     :     0.019587
      dx2y2   :     0.016700
      dxy     :     0.010992
 10 H s       :     0.890875  s :     0.890875
 11 H s       :     0.887995  s :     0.887995
 12 H s       :     0.891196  s :     0.891196
 13 H s       :     0.892463  s :     0.892463
 14 H s       :     0.894799  s :     0.894799
 15 H s       :     0.892778  s :     0.892778
 16 H s       :     0.896180  s :     0.896180
 17 H s       :     0.896008  s :     0.896008
 18 H s       :     0.892833  s :     0.892833
 19 H s       :     0.895807  s :     0.895807
 20 H s       :     0.893598  s :     0.893598
 21 H s       :     0.894280  s :     0.894280
 22 H s       :     0.894156  s :     0.894156
 23 H s       :     0.895842  s :     0.895842
 24 H s       :     0.893383  s :     0.893383
 25 H s       :     0.896085  s :     0.896085
 26 H s       :     0.893728  s :     0.893728
 27 H s       :     0.893497  s :     0.893497
 28 H s       :     0.894802  s :     0.894802
 29 H s       :     0.889102  s :     0.889102
 30 H s       :     0.891153  s :     0.891153
 31 H s       :     0.890746  s :     0.890746

SPIN
  0 C s       :     0.000000  s :     0.000000
      pz      :     0.000000  p :     0.000000
      px      :     0.000000
      py      :     0.000000
      dz2     :     0.000000  d :     0.000000
      dxz     :     0.000000
      dyz     :     0.000000
      dx2y2   :     0.000000
      dxy     :     0.000000
  1 C s       :     0.000000  s :     0.000000
      pz      :     0.000000  p :     0.000000
      px      :     0.000000
      py      :     0.000000
      dz2     :     0.000000  d :     0.000000
      dxz     :     0.000000
      dyz     :     0.000000
      dx2y2   :     0.000000
      dxy     :     0.000000
  2 C s       :     0.000000  s :     0.000000
      pz      :     0.000000  p :     0.000000
      px      :     0.000000
      py      :     0.000000
      dz2     :     0.000000  d :     0.000000
      dxz     :     0.000000
      dyz     :     0.000000
      dx2y2   :     0.000000
      dxy     :     0.000000
  3 C s       :     0.000000  s :     0.000000
      pz      :     0.000000  p :     0.000000
      px      :     0.000000
      py      :     0.000000
      dz2     :     0.000000  d :     0.000000
      dxz     :     0.000000
      dyz     :     0.000000
      dx2y2   :     0.000000
      dxy     :     0.000000
  4 C s       :     0.000000  s :     0.000000
      pz      :     0.000000  p :     0.000000
      px      :     0.000000
      py      :     0.000000
      dz2     :     0.000000  d :     0.000000
      dxz     :     0.000000
      dyz     :     0.000000
      dx2y2   :     0.000000
      dxy     :     0.000000
  5 C s       :     0.000000  s :     0.000000
      pz      :     0.000000  p :     0.000000
      px      :     0.000000
      py      :     0.000000
      dz2     :     0.000000  d :     0.000000
      dxz     :     0.000000
      dyz     :     0.000000
      dx2y2   :     0.000000
      dxy     :     0.000000
  6 C s       :     0.000000  s :     0.000000
      pz      :     0.000000  p :     0.000000
      px      :     0.000000
      py      :     0.000000
      dz2     :     0.000000  d :     0.000000
      dxz     :     0.000000
      dyz     :     0.000000
      dx2y2   :     0.000000
      dxy     :     0.000000
  7 C s       :     0.000000  s :     0.000000
      pz      :     0.000000  p :     0.000000
      px      :     0.000000
      py      :     0.000000
      dz2     :     0.000000  d :     0.000000
      dxz     :     0.000000
      dyz     :     0.000000
      dx2y2   :     0.000000
      dxy     :     0.000000
  8 C s       :     0.000000  s :     0.000000
      pz      :     0.000000  p :     0.000000
      px      :     0.000000
      py      :     0.000000
      dz2     :     0.000000  d :     0.000000
      dxz     :     0.000000
      dyz     :     0.000000
      dx2y2   :     0.000000
      dxy     :     0.000000
  9 C s       :     0.000000  s :     0.000000
      pz      :     0.000000  p :     0.000000
      px      :     0.000000
      py      :     0.000000
      dz2     :     0.000000  d :     0.000000
      dxz     :     0.000000
      dyz     :     0.000000
      dx2y2   :     0.000000
      dxy     :     0.000000
 10 H s       :     0.000000  s :     0.000000
 11 H s       :     0.000000  s :     0.000000
 12 H s       :     0.000000  s :     0.000000
 13 H s       :     0.000000  s :     0.000000
 14 H s       :     0.000000  s :     0.000000
 15 H s       :     0.000000  s :     0.000000
 16 H s       :     0.000000  s :     0.000000
 17 H s       :     0.000000  s :     0.000000
 18 H s       :     0.000000  s :     0.000000
 19 H s       :     0.000000  s :     0.000000
 20 H s       :     0.000000  s :     0.000000
 21 H s       :     0.000000  s :     0.000000
 22 H s       :     0.000000  s :     0.000000
 23 H s       :     0.000000  s :     0.000000
 24 H s       :     0.000000  s :     0.000000
 25 H s       :     0.000000  s :     0.000000
 26 H s       :     0.000000  s :     0.000000
 27 H s       :     0.000000  s :     0.000000
 28 H s       :     0.000000  s :     0.000000
 29 H s       :     0.000000  s :     0.000000
 30 H s       :     0.000000  s :     0.000000
 31 H s       :     0.000000  s :     0.000000


                      *****************************
                      * MAYER POPULATION ANALYSIS *
                      *****************************

  NA   - Mulliken gross atomic population
  ZA   - Total nuclear charge
  QA   - Mulliken gross atomic charge
  VA   - Mayer's total valence
  BVA  - Mayer's bonded valence
  FA   - Mayer's free valence

  ATOM       NA         ZA         QA         VA         BVA        FA
  0 C      6.2747     6.0000    -0.2747     4.0089     4.0089     0.0000
  1 C      6.1239     6.0000    -0.1239     4.1141     4.1141     0.0000
  2 C      6.1660     6.0000    -0.1660     4.0944     4.0944     0.0000
  3 C      6.1314     6.0000    -0.1314     4.0837     4.0837     0.0000
  4 C      6.1041     6.0000    -0.1041     4.0802     4.0802     0.0000
  5 C      6.2061     6.0000    -0.2061     4.1034     4.1034     0.0000
  6 C      6.1112     6.0000    -0.1112     4.0839     4.0839     0.0000
  7 C      6.1243     6.0000    -0.1243     4.0819     4.0819     0.0000
  8 C      6.1741     6.0000    -0.1741     4.1296     4.1296     0.0000
  9 C      6.2461     6.0000    -0.2461     4.0047     4.0047     0.0000
 10 H      0.9007     1.0000     0.0993     0.9565     0.9565     0.0000
 11 H      0.9082     1.0000     0.0918     0.9518     0.9518     0.0000
 12 H      0.9126     1.0000     0.0874     0.9570     0.9570     0.0000
 13 H      0.9277     1.0000     0.0723     0.9457     0.9457     0.0000
 14 H      0.9320     1.0000     0.0680     0.9510     0.9510     0.0000
 15 H      0.9206     1.0000     0.0794     0.9508     0.9508     0.0000
 16 H      0.9361     1.0000     0.0639     0.9561     0.9561     0.0000
 17 H      0.9379     1.0000     0.0621     0.9576     0.9576     0.0000
 18 H      0.9268     1.0000     0.0732     0.9546     0.9546     0.0000
 19 H      0.9367     1.0000     0.0633     0.9569     0.9569     0.0000
 20 H      0.9351     1.0000     0.0649     0.9527     0.9527     0.0000
 21 H      0.9213     1.0000     0.0787     0.9549     0.9549     0.0000
 22 H      0.9219     1.0000     0.0781     0.9561     0.9561     0.0000
 23 H      0.9358     1.0000     0.0642     0.9570     0.9570     0.0000
 24 H      0.9333     1.0000     0.0667     0.9516     0.9516     0.0000
 25 H      0.9360     1.0000     0.0640     0.9564     0.9564     0.0000
 26 H      0.9332     1.0000     0.0668     0.9516     0.9516     0.0000
 27 H      0.9179     1.0000     0.0821     0.9489     0.9489     0.0000
 28 H      0.9311     1.0000     0.0689     0.9504     0.9504     0.0000
 29 H      0.9073     1.0000     0.0927     0.9513     0.9513     0.0000
 30 H      0.9130     1.0000     0.0870     0.9579     0.9579     0.0000
 31 H      0.9130     1.0000     0.0870     0.9575     0.9575     0.0000

  Mayer bond orders larger than 0.100000
B(  0-C ,  1-C ) :   1.1291 B(  0-C , 10-H ) :   0.9567 B(  0-C , 11-H ) :   0.9576 
B(  0-C , 12-H ) :   0.9609 B(  1-C ,  2-C ) :   1.1106 B(  1-C , 13-H ) :   0.9368 
B(  1-C , 14-H ) :   0.9336 B(  2-C ,  3-C ) :   1.1152 B(  2-C , 15-H ) :   0.9262 
B(  2-C , 16-H ) :   0.9312 B(  3-C ,  4-C ) :   1.1135 B(  3-C , 17-H ) :   0.9261 
B(  3-C , 18-H ) :   0.9253 B(  4-C ,  5-C ) :   1.1143 B(  4-C , 19-H ) :   0.9250 
B(  4-C , 20-H ) :   0.9282 B(  5-C ,  6-C ) :   1.1178 B(  5-C , 21-H ) :   0.9250 
B(  5-C , 22-H ) :   0.9259 B(  6-C ,  7-C ) :   1.1121 B(  6-C , 23-H ) :   0.9246 
B(  6-C , 24-H ) :   0.9287 B(  7-C ,  8-C ) :   1.1148 B(  7-C , 25-H ) :   0.9273 
B(  7-C , 26-H ) :   0.9302 B(  8-C ,  9-C ) :   1.1346 B(  8-C , 27-H ) :   0.9309 
B(  8-C , 28-H ) :   0.9362 B(  9-C , 29-H ) :   0.9598 B(  9-C , 30-H ) :   0.9584 
B(  9-C , 31-H ) :   0.9593 

-------
TIMINGS
-------

Total SCF time: 0 days 0 hours 0 min 57 sec 

Total time                  ....      57.337 sec
Sum of individual times     ....      52.876 sec  ( 92.2%)

Fock matrix formation       ....      48.987 sec  ( 85.4%)
  XC integration            ....      10.953 sec  ( 22.4% of F)
    Basis function eval.    ....       1.768 sec  ( 16.1% of XC)
    Density eval.           ....       1.585 sec  ( 14.5% of XC)
    XC-Functional eval.     ....       0.346 sec  (  3.2% of XC)
    XC-Potential eval.      ....       1.889 sec  ( 17.2% of XC)
Diagonalization             ....       0.135 sec  (  0.2%)
Density matrix formation    ....       0.675 sec  (  1.2%)
Population analysis         ....       0.434 sec  (  0.8%)
Initial guess               ....       0.015 sec  (  0.0%)
Orbital Transformation      ....       0.000 sec  (  0.0%)
Orbital Orthonormalization  ....       0.009 sec  (  0.0%)
DIIS solution               ....       0.436 sec  (  0.8%)
Grid generation             ....       2.193 sec  (  3.8%)


-------------------------------------------------------------------------------
                          DFT DISPERSION CORRECTION                            
                                                                               
                              DFTD3 V3.1  Rev 1                                
                          USING Becke-Johnson damping                          
-------------------------------------------------------------------------------
The B3LYP functional is recognized
Active option DFTDOPT                   ...         4   

molecular C6(AA) [au] = 6609.741857 


            DFT-D V3
 parameters
 s6 scaling factor         :     1.0000 
 a1 scaling factor         :     0.3981 
 s8 scaling factor         :     1.9889 
 a2 scaling factor         :     4.4211 
 ad hoc parameters k1-k3   :    16.0000     1.3333    -4.0000 

 Edisp/kcal,au: -28.020641929218  -0.044653730499 
 E6   /kcal   : -14.076162959 
 E8   /kcal   : -13.944478970 
 % E8         :  49.765023248 

-------------------------   ----------------
Dispersion correction           -0.044653730
-------------------------   ----------------


-------------------------   --------------------
FINAL SINGLE POINT ENERGY      -393.748096246334
-------------------------   --------------------

                                *** OPTIMIZATION RUN DONE ***

                            ***************************************
                            *     ORCA property calculations      *
                            ***************************************

                                    ---------------------
                                    Active property flags
                                    ---------------------
   (+) Dipole Moment


------------------------------------------------------------------------------
                       ORCA ELECTRIC PROPERTIES CALCULATION
------------------------------------------------------------------------------

Dipole Moment Calculation                       ... on
Quadrupole Moment Calculation                   ... off
Polarizability Calculation                      ... off
GBWName                                         ... orca8.gbw
Electron density file                           ... orca8.scfp
The origin for moment calculation is the CENTER OF MASS  = ( 0.006708,  0.030656 -0.069634)

-------------
DIPOLE MOMENT
-------------
                                X             Y             Z
Electronic contribution:      0.12554       0.07494      -1.19198
Nuclear contribution   :     -0.11634      -0.08320       1.20761
                        -----------------------------------------
Total Dipole Moment    :      0.00921      -0.00826       0.01562
                        -----------------------------------------
Magnitude (a.u.)       :      0.01993
Magnitude (Debye)      :      0.05065



--------------------
Rotational spectrum 
--------------------
 
Rotational constants in cm-1:     0.104978     0.011239     0.010641 
Rotational constants in MHz :  3147.173506   336.943621   319.013303 

 Dipole components along the rotational axes: 
x,y,z [a.u.] :     0.011989     0.013399    -0.008593 
x,y,z [Debye]:     0.030474     0.034057    -0.021841 

 

Timings for individual modules:

Sum of individual times         ...    10753.477 sec (= 179.225 min)
GTO integral calculation        ...      187.435 sec (=   3.124 min)   1.7 %
SCF iterations                  ...     9008.442 sec (= 150.141 min)  83.8 %
SCF Gradient evaluation         ...     1464.594 sec (=  24.410 min)  13.6 %
Geometry relaxation             ...       93.006 sec (=   1.550 min)   0.9 %
                             ****ORCA TERMINATED NORMALLY****
TOTAL RUN TIME: 0 days 3 hours 2 minutes 50 seconds 832 msec
