14
Properties=species:S:1:pos:R:3 energy=-4305.170793189098 smiles=CCCC name=tbu config_type=start_0 pbc="F F F"
C        0.04191737       0.08673577      -0.43907567
C        0.01188992       1.51519494       0.29025867
C       -1.36523760      -0.67806319      -0.30348768
C        1.25892144      -0.81767471       0.06209244
H        0.21455523       0.27338162      -1.51842675
H       -0.83805543       2.18712604      -0.09229715
H        1.01313327       2.08205919       0.16683855
H       -0.15792883       1.38925011       1.37783270
H       -1.59372541      -0.87768256       0.76242081
H       -2.24469385      -0.05356906      -0.70797293
H       -1.35840078      -1.70042439      -0.84340162
H        1.12028257      -1.05172624       1.13677873
H        2.28217044      -0.28101372      -0.04665692
H        1.31800171      -1.82930185      -0.50289373
14
Properties=species:S:1:pos:R:3 energy=-4305.170793189098 smiles=CCCC name=tbu config_type=start_1 pbc="F F F"
C        0.01947463       0.05257023      -0.44443233
C        0.89181008       1.20379306       0.25672133
C       -1.54504440       0.21489519      -0.11467632
C        0.55836656      -1.40851329      -0.09043444
H        0.14023677       0.17299838      -1.54048525
H        0.52395543       2.25441396      -0.02316485
H        2.01273273       1.12003281      -0.01038055
H        0.80900883       1.13111589       1.36062730
H       -1.72418859       0.09268056       0.97186919
H       -1.94485615       1.26022906      -0.39252707
H       -2.18514522      -0.58453761      -0.65582838
H        0.47928543      -1.57153776       1.00279727
H        1.67432156      -1.54841228      -0.37963708
H       -0.05737571      -2.24436815      -0.60438227
14
Properties=species:S:1:pos:R:3 energy=-4305.170793189098 smiles=CCCC name=tbu config_type=start_2 pbc="F F F"
C        0.20124602       0.11401892      -0.39521504
C        0.36521464       1.25232839       0.73994085
C       -1.42899974      -0.10091743      -0.96701653
C        0.76662504      -1.20953281       0.28114118
H        0.90403622       0.43069400      -1.38478749
H        0.00205128       2.21865281       0.23370453
H        1.54504287       1.43046659       1.12400141
H       -0.32822012       0.99666950       1.75168055
H       -2.19587860      -0.39800665      -0.01463018
H       -1.82626057       0.83419251      -1.51491311
H       -1.54813897      -0.91076584      -1.79640913
H        0.08462345      -1.58813041       1.27454310
H        1.95504407      -1.05230361       0.66900239
H        0.69728300      -2.01985398      -0.56250194
14
Properties=species:S:1:pos:R:3 energy=-4305.170793189098 smiles=CCCC name=tbu config_type=start_3 pbc="F F F"
C       -0.13985402       0.02528708      -0.48829296
C        0.53848536       1.46665961      -0.19296085
C       -1.48128226      -0.36225057       0.54885253
C        1.05066296      -1.01665519      -0.30948318
H       -0.54924422       0.01568600      -1.67412451
H       -0.31615128       2.22288719      -0.34916653
H        1.48082313       1.77162541      -0.96754341
H        0.97930012       1.52369650       0.98677945
H       -1.12203540      -0.38699535       1.74892018
H       -2.36328943       0.37246749       0.41441311
H       -1.99540703      -1.37419616       0.29717913
H        1.51494455      -1.03513359       0.86503290
H        2.00144793      -0.77712239      -1.09529639
H        0.56334300      -2.05381602      -0.54477406
14
Properties=species:S:1:pos:R:3 energy=-4305.170793189098 smiles=CCCC name=tbu config_type=start_4 pbc="F F F"
C       -2.01094520       2.50471659      -2.05986640
C       -1.58588631       3.82845425      -1.40733775
C       -3.51109691       2.24960705      -1.85850457
C       -1.17204704       1.32902093      -1.53326058
H       -1.82554606       2.59111294      -3.15182152
H       -2.16335957       4.68377205      -1.81112672
H       -0.51264500       4.03436249      -1.57935411
H       -1.75322037       3.79680941      -0.31012596
H       -3.75509916       2.16134741      -0.77922464
H       -4.12177922       3.07561986      -2.27471265
H       -3.82839841       1.31114214      -2.35157258
H       -1.31892098       1.19670098      -0.44128682
H       -0.09183975       1.49282307      -1.71052850
H       -1.45287228       0.37931349      -2.02680988
14
Properties=species:S:1:pos:R:3 energy=-4305.170793189098 smiles=CCCC name=tbu config_type=start_5 pbc="F F F"
C        2.07233720      -2.36541059       1.17635840
C        2.48958631      -1.10946625       1.95431775
C        0.60081491      -2.71277505       1.44034057
C        2.98933504      -3.55520893       1.50491858
H        2.18033806      -2.14473294       0.09290952
H        1.84925957      -0.24223205       1.69566472
H        3.53851100      -0.83227049       1.73581211
H        2.40430037      -1.27644341       3.04858596
H        0.43718516      -2.94634941       2.51351464
H       -0.06777078      -1.86895986       1.17421265
H        0.28485241      -3.59610414       0.85234258
H        2.91848898      -3.81996498       2.58086282
H        4.04833175      -3.32224907       1.28423450
H        2.71349828      -4.45298349       0.91953388
14
Properties=species:S:1:pos:R:3 energy=-4305.170793189098 smiles=CCCC name=tbu config_type=start_6 pbc="F F F"
C       -0.59508220      -3.02672704      -4.35497650
C       -0.22125313      -1.73273440      -3.61970205
C       -2.07613212      -3.37211126      -4.14873662
C        0.30910297      -4.18940088      -3.92576502
H       -0.43563617      -2.85786537      -5.43880363
H       -0.84776314      -0.88431421      -3.95205446
H        0.83657950      -1.46054464      -3.79487566
H       -0.36266257      -1.84630464      -2.52721735
H       -2.29201830      -3.54986739      -3.07722680
H       -2.73364182      -2.55127974      -4.49068484
H       -2.35939711      -4.28607727      -4.70357518
H        0.18744441      -4.40279527      -2.84580269
H        1.37645506      -3.95859385      -4.10438070
H        0.06577452      -5.11511273      -4.48013380
14
Properties=species:S:1:pos:R:3 energy=-4305.170793189098 smiles=CCCC name=tbu config_type=start_7 pbc="F F F"
C        0.65647420       3.16603304       3.47146850
C        1.12495313       4.45172240       4.16668205
C       -0.83414988       2.90894326       3.73057262
C        1.50818503       1.96321288       3.89742302
H        0.79042817       3.30424537       2.37989163
H        0.53366314       5.32585421       3.83659246
H        2.18928650       4.66263664       3.95133366
H        1.01374257       4.36667064       5.26567735
H       -1.02589570       2.76486539       4.81151680
H       -1.45590818       3.75793974       3.39018484
H       -1.18414889       2.00111527       3.20434518
H        1.41212359       1.77953127       4.98537869
H        2.58003694       2.12916785       3.67808670
H        1.19485148       1.04144273       3.37285780
14
Properties=species:S:1:pos:R:3 energy=-4305.170793189098 smiles=CCCC name=tbu config_type=start_8 pbc="F F F"
C       -2.34990952      -1.05989744       0.82192825
C       -1.90841684       0.25650678       1.47787109
C       -3.80414176      -1.40864631       1.19393694
C       -1.39334666      -2.20559731       1.19124602
H       -2.30494171      -0.91967330      -0.28138949
H       -2.57663640       1.09164209       1.18689980
H       -0.87267941       0.53142640       1.18362133
H       -1.93310893       0.17019301       2.58721208
H       -3.90457509      -1.56309751       2.29021406
H       -4.50306449      -0.59950207       0.90034362
H       -4.13824845      -2.33669845       0.69304198
H       -1.39827766      -2.38829910       2.28861599
H       -0.34852931      -1.97602040       0.89235153
H       -1.68954598      -3.14807800       0.69332102
14
Properties=species:S:1:pos:R:3 energy=-4305.170793189098 smiles=CCCC name=tbu config_type=start_9 pbc="F F F"
C        2.41130152       1.19920344      -1.70543625
C        2.81211684       2.46248122      -0.93089109
C        0.89385976       0.94547831      -1.61210094
C        3.21063466      -0.02059069      -1.21958802
H        2.65973371       1.36605330      -2.77752251
H        2.26253640       3.34989791      -1.30236180
H        3.89854541       2.67066560      -1.02716333
H        2.58418893       2.35017299       0.15124792
H        0.58666109       0.77809551      -0.55592406
H        0.31351449       1.80616207      -2.00084362
H        0.59470245       0.05173645      -2.19227198
H        2.99784566      -0.23496490      -0.14903999
H        4.30502131       0.14659440      -1.31864553
H        2.95017198      -0.92559200      -1.80059702
14
Properties=species:S:1:pos:R:3 energy=-4305.170793189098 smiles=CCCC name=tbu config_type=start_10 pbc="F F F"
C       -0.02406198       0.24505176      -0.43097587
C        0.41532090       1.23230507       0.81364925
C       -1.45917700      -0.25497713      -0.13318359
C        0.98189551      -1.08107464      -0.65956801
H       -0.03190157       0.89791355      -1.46918057
H       -0.30373306       2.20160815       0.96243707
H        1.43137080       1.63470668       0.56894165
H        0.45959440       0.63075065       1.88206816
H       -1.50120976      -0.93061536       0.89858262
H       -2.19537161       0.70501330       0.00621368
H       -1.79694312      -0.93445463      -1.05625265
H        1.02292258      -1.77259645       0.35110230
H        2.01346409      -0.72765276      -0.90462572
H        0.68889599      -1.77943455      -1.57824293
14
Properties=species:S:1:pos:R:3 energy=-4305.170793189098 smiles=CCCC name=tbu config_type=start_11 pbc="F F F"
C        0.08545398      -0.10574576      -0.45253213
C        0.48837910       1.48668293      -0.26666925
C       -1.45110500      -0.20819087      -0.28498041
C        0.83539249      -1.14511336       0.63122601
H        0.38669357      -0.45153355      -1.58973143
H       -0.01036694       2.23993185      -1.07789907
H        1.59449520       1.56738532      -0.41248365
H        0.19148560       1.88961535       0.85639184
H       -1.81670424       0.14561336       0.83570738
H       -1.99417839       0.50164670      -1.10671368
H       -1.74660288      -1.35050737      -0.44297735
H        0.57664542      -0.85066755       1.78847370
H        1.94302791      -1.10177324       0.47833172
H        0.57173001      -2.29423545       0.47096693
14
Properties=species:S:1:pos:R:3 energy=-4305.170793189098 smiles=CCCC name=tbu config_type=start_12 pbc="F F F"
C        0.03018621       0.06948810      -0.44174408
C        0.46385491       1.35348656       0.27599434
C       -1.45824618      -0.21805348      -0.20639219
C        0.90019763      -1.12068141      -0.01938401
H        0.17553202       0.22333080      -1.52979376
H       -0.35137505       2.16248075       0.18441568
H        1.44127342       1.75723252      -0.18070895
H        0.64176964       1.13721739       1.39752682
H       -1.72909881      -0.02250946       0.90893437
H       -2.10973638       0.47194698      -0.87460085
H       -1.70061648      -1.32394590      -0.45809445
H        0.55274034      -1.52110374       1.00419002
H        2.00200708      -0.80322223       0.06923019
H        0.81931187      -1.96946710      -0.79043367
14
Properties=species:S:1:pos:R:3 energy=-4305.170793189098 smiles=CCCC name=tbu config_type=start_13 pbc="F F F"
C        0.03120579       0.06981790      -0.44176392
C        0.43984509       1.36550144       0.27098566
C       -1.45203582      -0.24511452      -0.21177181
C        0.91709037      -1.10550659      -0.00895799
H        0.17925998       0.22304920      -1.52911824
H        0.03727505       2.27905925      -0.29987768
H        1.58459258       1.44485948       0.33716695
H        0.00931036       1.38314861       1.34093318
H       -1.58881519      -0.76249254       0.82535563
H       -2.07981362       0.73471302      -0.22589915
H       -1.84292952      -0.96101610      -1.04113555
H        1.04682766      -1.10216026       1.13538598
H        1.95448492      -1.02620377      -0.49552419
H        0.44131413      -2.10420290      -0.31684233
14
Properties=species:S:1:pos:R:3 energy=-4305.170793189098 smiles=CCCC name=tbu config_type=start_14 pbc="F F F"
C        0.02964757       0.06965010      -0.43966557
C        0.44220084       1.36595873       0.26983949
C       -1.45066023      -0.22958713      -0.16532415
C        0.91614408      -1.12201180      -0.05525980
H        0.15977002       0.22805750      -1.52911097
H        0.10370356       2.29742425      -0.37215169
H        1.61213294       1.39253702       0.41165951
H       -0.08096627       1.42103096       1.33194705
H       -1.64669410      -0.20583336       0.93901842
H       -2.11299275       0.52790142      -0.65102574
H       -1.74610756      -1.24232552      -0.54431773
H        0.66757199      -1.49759059       0.98255868
H        2.00171978      -0.82640659      -0.07317372
H        0.76897666      -1.97903402      -0.77823030
14
Properties=species:S:1:pos:R:3 energy=-4305.170793189098 smiles=CCCC name=tbu config_type=start_15 pbc="F F F"
C        0.03174443       0.06965590      -0.44384243
C        0.46149916       1.35302927       0.27714051
C       -1.45962177      -0.23358087      -0.25283985
C        0.90114392      -1.10417620       0.02691780
H        0.19502198       0.21832250      -1.52980103
H       -0.41780356       2.14411575       0.25668969
H        1.41373306       1.80955498      -0.25520151
H        0.73204627       1.09933504       1.40651295
H       -1.67121990      -0.57916864       0.79527158
H       -2.07655725       0.67875858      -0.44947426
H       -1.79743844      -1.04263648      -0.95491227
H        0.93199601      -1.12567341       1.15701732
H        1.95477222      -1.00301941      -0.35312028
H        0.49164934      -2.09463598      -0.32904570
14
Properties=species:S:1:pos:R:3 energy=-4305.170793189098 smiles=CCCC name=tbu config_type=start_16 pbc="F F F"
C        0.03048399       0.06893118      -0.43956206
C        0.46451338       1.37890621       0.23085129
C       -1.45064932      -0.24340328      -0.19036358
C        0.89195552      -1.11863374       0.00863525
H        0.17296961       0.20618008      -1.53038288
H       -0.17297100       2.22075961      -0.09892956
H        1.51278101       1.62861418      -0.02576955
H        0.39462661       1.31532219       1.33696345
H       -1.57224687      -0.74941643       0.85115442
H       -2.08506696       0.73015012      -0.20643354
H       -1.84709055      -0.96765310      -1.00302550
H        0.49064219      -1.52919871       1.02462185
H        2.00226596      -0.79350390       0.15150759
H        0.84278247      -1.96584057      -0.78260408
14
Properties=species:S:1:pos:R:3 energy=-4305.170793189098 smiles=CCCC name=tbu config_type=start_17 pbc="F F F"
C        0.03090801       0.07037482      -0.44394594
C        0.43918662       1.34008179       0.31612871
C       -1.45963268      -0.21976472      -0.22780042
C        0.92533248      -1.10755426      -0.03697725
H        0.18182239       0.24019992      -1.52852912
H       -0.14112900       2.22078039      -0.01653244
H        1.51308499       1.57347782       0.18222755
H        0.25645339       1.20504381       1.40149655
H       -1.74566713      -0.03558557       0.88313558
H       -2.10448304       0.47650988      -0.89406646
H       -1.69645545      -1.31730890      -0.49620450
H        1.10892581      -1.09406529       1.11495415
H        1.95422604      -1.03592210      -0.57780159
H        0.41784353      -2.10782943      -0.32467192
14
Properties=species:S:1:pos:R:3 energy=-4305.170793189098 smiles=CCCC name=tbu config_type=start_18 pbc="F F F"
C        0.00490445       0.12732986      -0.43661115
C        0.53492526       1.38755589       0.28249850
C       -1.45546579      -0.32766806      -0.22505660
C        0.84019374      -1.07689098      -0.00998917
H        0.14687093       0.29153777      -1.52349071
H        0.02088031       2.32146050      -0.03219177
H        1.61941290       1.50153872       0.05320942
H        0.43635189       1.30175839       1.38276587
H       -1.66292358      -0.51943575       0.84579956
H       -2.22544733       0.39348682      -0.59632911
H       -1.60259430      -1.29884393      -0.76407608
H        0.70729978      -1.25875621       1.07489949
H        1.92240045      -0.93847142      -0.19816053
H        0.51636538      -1.99209192      -0.53997716
14
Properties=species:S:1:pos:R:3 energy=-4305.170793189098 smiles=CCCC name=tbu config_type=start_19 pbc="F F F"
C        0.05648755       0.01197614      -0.44689685
C        0.36877474       1.33143211       0.26448150
C       -1.45481621      -0.13549994      -0.19310740
C        0.97709426      -1.14929702      -0.01835283
H        0.20792107       0.15484223      -1.53542129
H       -0.33498031       2.12007950      -0.08327023
H        1.40645310       1.70055328       0.10324858
H        0.21472811       1.21860761       1.35569413
H       -1.65499042      -0.26556625       0.88849044
H       -1.96410267       0.81317318      -0.50417089
H       -1.94095170      -0.98611807      -0.73515392
H        0.89226822      -1.36450779       1.06467651
H        2.03409155      -0.89095458      -0.22813347
H        0.74426062      -2.08157808      -0.56729884
14
Properties=species:S:1:pos:R:3 energy=-4305.170793189098 smiles=CCCC name=tbu config_type=start_20 pbc="F F F"
C        0.08767270       0.09386109      -0.42719077
C        0.40372296       1.43476065       0.27113045
C       -1.38237688      -0.24376722      -0.19365454
C        0.85235332      -1.18957491      -0.03519180
H        0.24600116       0.25179555      -1.51279984
H       -0.30536435       2.20922093      -0.10570678
H        1.43768615       1.79952932       0.08029850
H        0.26643890       1.36684606       1.36810175
H       -1.56281141      -0.40649346       0.88700234
H       -2.06395195       0.56002056      -0.53041717
H       -1.66694792      -1.17408057      -0.71936788
H        0.72994556      -1.41815384       1.04171832
H        1.94929921      -1.15971798      -0.25322553
H        0.40956384      -2.04749981      -0.60381143
14
Properties=species:S:1:pos:R:3 energy=-4305.170793189098 smiles=CCCC name=tbu config_type=start_21 pbc="F F F"
C       -0.02628070       0.04544491      -0.45631723
C        0.49997704       1.28422735       0.27584955
C       -1.52790512      -0.21940078      -0.22450946
C        0.96493468      -1.03661309       0.00684980
H        0.10879084       0.19458445      -1.54611216
H       -0.00873565       2.23231907      -0.00975522
H        1.58817985       1.40256268       0.07615950
H        0.38464110       1.15351994       1.37035825
H       -1.75510259      -0.37850854       0.84728766
H       -2.12559805       0.64663944      -0.57008283
H       -1.87659808      -1.11088143      -0.77986212
H        0.86962244      -1.20511016       1.09785768
H        2.00719279      -0.66970802      -0.17306847
H        0.85106216      -2.02617019      -0.50346457
14
Properties=species:S:1:pos:R:3 energy=-4305.170793189098 smiles=CCCC name=tbu config_type=start_22 pbc="F F F"
C        0.01466461       0.05363368      -0.33644353
C        0.47269458       1.40910370       0.26487296
C       -1.50628889      -0.23672431      -0.23662881
C        0.94754193      -1.14905048      -0.03338671
H        0.16148329       0.20780741      -1.42755231
H       -0.14069035       2.23380795      -0.15484857
H        1.52496197       1.61427845      -0.02795527
H        0.40718945       1.46356874       1.38224731
H       -1.87209113      -0.42196108       0.80516052
H       -2.08026813       0.61697022      -0.65623895
H       -1.76282567      -1.12526939      -0.85220062
H        0.95280918      -1.46981484       1.03933091
H        1.99069287      -0.89711957      -0.32229654
H        0.64900439      -2.02245358      -0.65016510
14
Properties=species:S:1:pos:R:3 energy=-4305.170793189098 smiles=CCCC name=tbu config_type=start_23 pbc="F F F"
C        0.04672739       0.08567232      -0.54706447
C        0.43100542       1.30988430       0.28210704
C       -1.40399311      -0.22644369      -0.18153519
C        0.86974607      -1.07713752       0.00504471
H        0.19330871       0.23857259      -1.63135969
H       -0.17340965       2.20773205       0.03938657
H        1.50090403       1.58781355       0.18441327
H        0.24389055       1.05679726       1.35621269
H       -1.44582287      -0.36304092       0.92912948
H       -2.10928187       0.58968978      -0.44426105
H       -1.78072033      -1.15969261      -0.64702938
H        0.64675882      -1.15344916       1.10024509
H        1.96579913      -0.93230643      -0.10399746
H        0.61162161      -2.05121642      -0.45711090
14
Properties=species:S:1:pos:R:3 energy=-4305.170793189098 smiles=CCCC name=tbu config_type=start_24 pbc="F F F"
C        0.03773551       0.07730198      -0.49423985
C        0.47220368       1.41930168       0.29402709
C       -1.52072779      -0.24315877      -0.21058396
C        0.95015983      -1.16518557      -0.00654954
H        0.18545555       0.23053613      -1.57979228
H       -0.13545919       2.30104898       0.01187888
H        1.53852802       1.67898731       0.14740901
H        0.31885071       1.24398677       1.37950035
H       -1.64458957      -0.39208425       0.88259663
H       -2.19564892       0.58244166      -0.51045829
H       -1.86939703      -1.16684374      -0.71140254
H        0.78822440      -1.30265752       1.08342781
H        2.03355034      -0.99273319      -0.16127216
H        0.68254749      -2.11749001      -0.50354011
14
Properties=species:S:1:pos:R:3 energy=-4305.170793189098 smiles=CCCC name=tbu config_type=start_25 pbc="F F F"
C        0.02365649       0.06200402      -0.38926815
C        0.43149632       1.29968632       0.25295291
C       -1.38955421      -0.22000923      -0.20758004
C        0.86712817      -1.06100243      -0.02179246
H        0.16933645       0.21584387      -1.47911972
H       -0.17864081       2.14049102      -0.12734088
H        1.48733798       1.52310469       0.00904899
H        0.33222929       1.27637923       1.35895965
H       -1.67332443      -0.39291775       0.85169337
H       -1.99390108       0.62421834      -0.59004171
H       -1.67414897      -1.11811826      -0.78782746
H        0.81134360      -1.32060648       1.05614819
H        1.92294166      -0.83669281      -0.26502184
H        0.57807851      -1.95617999      -0.60373589
14
Properties=species:S:1:pos:R:3 energy=-4305.170793189098 smiles=CCCC name=tbu config_type=start_26 pbc="F F F"
C        0.05577354       0.03028919      -0.44398379
C        0.47488633       1.36676661       0.30083499
C       -1.46406172      -0.25962945      -0.19899688
C        0.89168371      -1.08724781      -0.05134463
H        0.12941329       0.29597322      -1.52571295
H       -0.20378065       2.13504066      -0.14837510
H        1.51272755       1.68981824       0.07697393
H        0.32776614       1.38536430       1.40383504
H       -1.74686480      -0.36338772       0.86986450
H       -1.97273190       0.65761205      -0.58801807
H       -1.87688164      -1.12739928      -0.75653877
H        0.67588868      -1.14694212       1.04929335
H        1.98647936      -0.92423179      -0.14635688
H        0.64472917      -2.08290218      -0.48088473
14
Properties=species:S:1:pos:R:3 energy=-4305.170793189098 smiles=CCCC name=tbu config_type=start_27 pbc="F F F"
C        0.00561846       0.10901681      -0.43952421
C        0.42881367       1.35222139       0.24614501
C       -1.44622028      -0.20353855      -0.21916712
C        0.92560429      -1.13894019       0.02300263
H        0.22537871       0.15040678      -1.53319905
H       -0.11031935       2.30649934       0.03291310
H        1.51313845       1.51227376       0.07948407
H        0.32331386       1.13500170       1.33462496
H       -1.57104920      -0.42161428       0.86442550
H       -2.21681810       0.54904795      -0.51248193
H       -1.66666436      -1.15756272      -0.74269123
H        0.92367932      -1.47632188       1.09028265
H        1.97001264      -0.90519421      -0.27993712
H        0.61589683      -1.99076782      -0.62639127
14
Properties=species:S:1:pos:R:3 energy=-4305.170793189098 smiles=CCCC name=tbu config_type=start_28 pbc="F F F"
C       -0.00850857       0.04424667      -0.45078119
C        0.44101353       1.38467924       0.30606256
C       -1.41993423      -0.23242492      -0.23981366
C        0.88945715      -1.13371767      -0.01469539
H        0.24584236       0.26629698      -1.51406944
H       -0.10988209       2.26689239      -0.07804494
H        1.50475446       1.52191570      -0.01150175
H        0.40298260       1.39475984       1.42100769
H       -1.47692418      -0.33973393       0.87355187
H       -2.08024740       0.62090379      -0.49551628
H       -1.84927715      -1.15942520      -0.68356716
H        0.85341468      -1.30094290       1.08179698
H        1.92649590      -0.79115913      -0.24779494
H        0.72987824      -2.11075830      -0.52339872
14
Properties=species:S:1:pos:R:3 energy=-4305.170793189098 smiles=CCCC name=tbu config_type=start_29 pbc="F F F"
C        0.06990057       0.09505933      -0.43272681
C        0.46268647       1.33430876       0.24091744
C       -1.49034777      -0.23074308      -0.17835034
C        0.92783085      -1.09247033      -0.01364661
H        0.10894964       0.18008302      -1.54484256
H       -0.20421791       2.17464761      -0.03741706
H        1.52111154       1.68017630       0.16795975
H        0.24809740       1.12560616       1.31745231
H       -1.84098982      -0.44526807       0.86073813
H       -2.10930260       0.58575621      -0.60498372
H       -1.69426885      -1.12553680      -0.81566284
H        0.74615332      -1.32232110       1.05777902
H        2.02999610      -1.03826687      -0.17849906
H        0.53074776      -1.96291170      -0.58387728
14
Properties=species:S:1:pos:R:3 energy=-4305.170793189098 smiles=CCCC name=tbu config_type=start_30 pbc="F F F"
C        0.02275746       0.07005328      -0.44290284
C        0.41979762       1.37431591       0.27089197
C       -1.44161998      -0.26087175      -0.20930467
C        0.93498208      -1.09890101      -0.01021612
H        0.14594931       0.22472513      -1.53370432
H       -0.06052395       2.35431979       0.01918505
H        1.51183266       1.43998203       0.01928988
H        0.38636339       1.23116355       1.37394001
H       -1.69086623      -0.33364420       0.87073460
H       -1.93380083       0.68144568      -0.57045629
H       -1.91184743      -1.11987264      -0.74521201
H        0.74199735      -1.33912798       1.05822598
H        2.03953441      -1.06736498      -0.17942790
H        0.51462897      -1.96272651      -0.58184787
14
Properties=species:S:1:pos:R:3 energy=-4305.170793189098 smiles=CCCC name=tbu config_type=start_31 pbc="F F F"
C        0.03863454       0.06925272      -0.44060516
C        0.48390238       1.34467209       0.27608803
C       -1.46866202      -0.20229625      -0.20885933
C        0.88230592      -1.12728699      -0.01812588
H        0.20884269       0.22165487      -1.52520768
H       -0.25357605       2.08722021      -0.13464705
H        1.51403334       1.76210997       0.13716812
H        0.26471661       1.28920245       1.36451999
H       -1.62704777      -0.45135780       0.86355540
H       -2.25574917       0.52521432      -0.53004371
H       -1.63169857      -1.16508936      -0.75401799
H        0.85757065      -1.28413602       1.08135002
H        1.91695759      -0.76206102      -0.24686610
H        0.74599703      -2.11094349      -0.52542813
14
Properties=species:S:1:pos:R:3 energy=-4305.170793189098 smiles=CCCC name=tbu config_type=start_32 pbc="F F F"
C        0.07345390       0.06394748      -0.43663750
C        0.46038318       1.34356441       0.27608558
C       -1.49700533      -0.24872843      -0.22956330
C        0.89919237      -1.07510290      -0.00155515
H        0.35528613       0.20475662      -1.50780530
H       -0.18019085       2.16396414      -0.10379363
H        1.51030269       1.62468458       0.06543716
H        0.33259460       1.29443065       1.37541103
H       -1.53817330      -0.35529036       0.88800189
H       -2.15750961       0.60922536      -0.47443915
H       -1.92643880      -1.17835485      -0.66881909
H        0.84175761      -1.39563431       1.06309581
H        1.96604770      -0.92857384      -0.26813897
H        0.53826792      -1.91945128      -0.63655654
14
Properties=species:S:1:pos:R:3 energy=-4305.170793189098 smiles=CCCC name=tbu config_type=start_33 pbc="F F F"
C       -0.01206190       0.07535852      -0.44687050
C        0.44331682       1.37542359       0.27089442
C       -1.41327667      -0.21443957      -0.18860070
C        0.91809563      -1.15108510      -0.02678685
H       -0.00049413       0.24162338      -1.55110670
H       -0.13390915       2.27757586      -0.01166837
H        1.51556331       1.57740742       0.09102084
H        0.31848540       1.22593535       1.36304897
H       -1.77974070      -0.42971164       0.84628811
H       -2.03204039       0.59743464      -0.62606085
H       -1.61710720      -1.10660715      -0.83041091
H        0.75781039      -1.22762969       1.07648019
H        1.99044430      -0.90085216      -0.15815503
H        0.72235808      -2.15421872      -0.47071946
14
Properties=species:S:1:pos:R:3 energy=-4305.170793189098 smiles=CCCC name=tbu config_type=start_34 pbc="F F F"
C        0.03405377       0.11261453      -0.43503140
C        0.42923522       1.31548043       0.27681659
C       -1.47045249      -0.21447602      -0.21277104
C        0.94258266      -1.12930997      -0.02051549
H        0.19532356       0.40442165      -1.50123582