5
Lattice="50.0 0.0 0.0 0.0 50.0 0.0 0.0 0.0 50.0" Properties=species:S:1:pos:R:3:dft_forces:R:3 smiles=C config_type=methane_mol dft_normal_mode_energy=0.04043763491921539 dft_normal_mode_temperature=300.0 dft_energy=-1100.4908361657822 pbc="F F F"
C       -0.00550444       0.00453635      -0.00659225       0.41876052      -0.82253975       0.60731272
H       -0.67440084       0.85478730      -0.08047735      -0.37596892       0.48460780      -0.01553845
H       -0.40107998      -0.86455406      -0.55828912       0.06843695       0.10045906      -0.20132870
H        0.13234676      -0.30987924       1.04179404      -0.35591527       0.09045920       0.18006440
H        1.00565232       0.26692380      -0.32341633       0.24468673       0.14701369      -0.57050996
5
Lattice="50.0 0.0 0.0 0.0 50.0 0.0 0.0 0.0 50.0" Properties=species:S:1:pos:R:3:dft_forces:R:3 smiles=C config_type=methane_mol dft_normal_mode_energy=0.09509103987584094 dft_normal_mode_temperature=300.0 dft_energy=-1100.4395332696733 pbc="F F F"
C        0.00976144       0.00302124       0.01375469      -0.94086588      -0.99997243      -1.81387795
H       -0.68048711       0.82063367      -0.14568756      -0.48999651       0.76241829       0.31913053
H       -0.43413029      -0.82648252      -0.61176404       0.47285853       0.30924677       0.45476990
H        0.04213456      -0.32376133       1.03996086       0.31296350      -0.02713732       0.82790140
H        0.95309117       0.29494287      -0.44535356       0.64504035      -0.04455531       0.21207612
5
Lattice="50.0 0.0 0.0 0.0 50.0 0.0 0.0 0.0 50.0" Properties=species:S:1:pos:R:3:dft_forces:R:3 smiles=C config_type=methane_mol dft_normal_mode_energy=0.21818289387590037 dft_normal_mode_temperature=300.0 dft_energy=-1100.3142378912582 pbc="F F F"
C       -0.00902854       0.00984770      -0.01828298       1.54058858      -0.58467416       0.10006026
H       -0.68012000       0.88548368       0.01876772      -0.05360585      -0.17921673      -0.64139671
H       -0.37126425      -0.94315618      -0.48321504      -0.07858745       0.96649765      -0.54500584
H        0.07910171      -0.32133635       1.00661720       0.18703746      -0.01198648       1.09931946
H        1.07679256       0.26299489      -0.32324877      -1.59543275      -0.19062028      -0.01297717
5
Lattice="50.0 0.0 0.0 0.0 50.0 0.0 0.0 0.0 50.0" Properties=species:S:1:pos:R:3:dft_forces:R:3 smiles=C config_type=methane_mol dft_normal_mode_energy=0.1279948597819664 dft_normal_mode_temperature=300.0 dft_energy=-1100.405312523703 pbc="F F F"
C        0.00437376       0.00816338       0.00544407       0.89677360      -1.88666126      -1.62138668
H       -0.68144919       0.80350699      -0.12043591      -0.97728951       1.48785093       0.11005006
H       -0.45901289      -0.86310453      -0.56791875       0.79677207       0.74075956       0.23063957
H        0.06255820      -0.34000022       1.02396752       0.17476988       0.08718392       0.95749851
H        1.02271042       0.30365653      -0.39942602      -0.89102604      -0.42913315       0.32319855
5
Lattice="50.0 0.0 0.0 0.0 50.0 0.0 0.0 0.0 50.0" Properties=species:S:1:pos:R:3:dft_forces:R:3 smiles=C config_type=methane_mol dft_normal_mode_energy=0.07450767843625247 dft_normal_mode_temperature=300.0 dft_energy=-1100.4570078521353 pbc="F F F"
C        0.00156047      -0.00464185      -0.00408358      -1.00153123       0.49452929      -0.71907853
H       -0.69682124       0.88426814      -0.01959520       0.48297001      -0.60425174      -0.50954107
H       -0.39443110      -0.86806754      -0.61148450       0.14320181       0.61579276       0.54764640
H        0.07236223      -0.22885471       1.04664519       0.17101314      -0.70219749       0.87383106
H        0.99722285       0.26929984      -0.36584638       0.20434627       0.19612719      -0.19285785
5
Lattice="50.0 0.0 0.0 0.0 50.0 0.0 0.0 0.0 50.0" Properties=species:S:1:pos:R:3:dft_forces:R:3 smiles=C config_type=methane_mol dft_normal_mode_energy=0.1558226871578058 dft_normal_mode_temperature=300.0 dft_energy=-1100.3777748354726 pbc="F F F"
C       -0.01363523       0.00725580       0.00441408       0.99934851       0.34180322      -0.83388212
H       -0.70229483       0.85574498      -0.12663592       0.18165069       0.13506213       0.29999094
H       -0.34605905      -0.82354093      -0.59040987      -0.55046965      -0.87024193      -0.43970568
H        0.19171430      -0.31581177       1.00075062      -0.60071740      -0.24323048       1.48876111
H        1.01604542       0.19847838      -0.33524534      -0.02981215       0.63660705      -0.51516426
5
Lattice="50.0 0.0 0.0 0.0 50.0 0.0 0.0 0.0 50.0" Properties=species:S:1:pos:R:3:dft_forces:R:3 smiles=C config_type=methane_mol dft_normal_mode_energy=0.13369392391454687 dft_normal_mode_temperature=300.0 dft_energy=-1100.4001975901929 pbc="F F F"
C        0.00901705       0.00006420       0.00602518      -0.39094638      -0.39236827       0.06973902
H       -0.68143841       0.80937270      -0.06756564      -0.77027091       1.24137694      -0.31839830
H       -0.38041509      -0.79519210      -0.60750054      -0.51811029      -0.93095361      -0.26109753
H        0.00639023      -0.27064818       1.06283981       0.60938386      -0.33795236       0.29738069
H        0.94494150       0.25703592      -0.45851323       1.06994371       0.41989731       0.21237612
5
Lattice="50.0 0.0 0.0 0.0 50.0 0.0 0.0 0.0 50.0" Properties=species:S:1:pos:R:3:dft_forces:R:3 smiles=C config_type=methane_mol dft_normal_mode_energy=0.1536282261569087 dft_normal_mode_temperature=300.0 dft_energy=-1100.3791348920568 pbc="F F F"
C       -0.00446008       0.00561563      -0.00864269      -1.05282546      -0.49527435      -0.28357886
H       -0.69096188       0.87514945      -0.08498300       0.20318901      -0.23700900       0.12321473
H       -0.41884948      -0.88764890      -0.53781763       0.36558042       0.55005196      -0.17396600
H        0.15983761      -0.31620131       0.99778821      -0.47966219      -0.16093481       1.50941233
H        1.00004913       0.26311735      -0.27094156       0.96371823       0.34316620      -1.17508221
5
Lattice="50.0 0.0 0.0 0.0 50.0 0.0 0.0 0.0 50.0" Properties=species:S:1:pos:R:3:dft_forces:R:3 smiles=C config_type=methane_mol dft_normal_mode_energy=0.11193202589584735 dft_normal_mode_temperature=300.0 dft_energy=-1100.4202269257135 pbc="F F F"
C       -0.00463678       0.00125236      -0.01052627       0.61684712      -0.59841935       1.43929186
H       -0.71324695       0.84275665      -0.06508722       0.23292326       0.24862541      -0.08426504
H       -0.43174244      -0.84701145      -0.60208873       0.44527970       0.24230796       0.37957712
H        0.15569324      -0.26684851       1.09643040      -0.68974307      -0.01663534      -1.18853695
H        1.04147479       0.25751390      -0.30276634      -0.60530701       0.12412133      -0.54606699
5
Lattice="50.0 0.0 0.0 0.0 50.0 0.0 0.0 0.0 50.0" Properties=species:S:1:pos:R:3:dft_forces:R:3 smiles=C config_type=methane_mol dft_normal_mode_energy=0.1453500597459223 dft_normal_mode_temperature=300.0 dft_energy=-1100.3873348533543 pbc="F F F"
C       -0.00999495      -0.00492258      -0.00367074       2.20536562      -1.11036114       0.70299288
H       -0.58467220       0.87266672      -0.03658898      -1.72541217       1.39348547      -0.46758608
H       -0.35217413      -0.87250616      -0.59715649      -0.34660477       0.29145575       0.09032053
H        0.06603822      -0.26314742       1.09184839       0.21706129      -0.09668256      -0.79171507
H        0.98683370       0.32297978      -0.41330548      -0.35040998      -0.47789753       0.46598773
4
Lattice="50.0 0.0 0.0 0.0 50.0 0.0 0.0 0.0 50.0" Properties=species:S:1:pos:R:3:dft_forces:R:3 smiles=C config_type=methane_rad1 dft_normal_mode_energy=0.020723336060789674 dft_normal_mode_temperature=300.0 dft_energy=-1082.208074393103 pbc="F F F"
C        0.17236099      -0.22607304       0.01902412      -0.33445683      -0.15886806       0.67378889
H       -0.52090812      -0.81786972      -0.58460364       0.14953134       0.08365018      -0.28632307
H        0.01199662      -0.22641279       1.10341974       0.01749094      -0.01323324       0.03245238
H        0.95043289       0.42279930      -0.36936233       0.16743455       0.08845113      -0.41991820
4
Lattice="50.0 0.0 0.0 0.0 50.0 0.0 0.0 0.0 50.0" Properties=species:S:1:pos:R:3:dft_forces:R:3 smiles=C config_type=methane_rad1 dft_normal_mode_energy=0.053405561642061096 dft_normal_mode_temperature=300.0 dft_energy=-1082.1770539218608 pbc="F F F"
C        0.15147261      -0.19890241       0.02019102       0.13070919      -0.14435910       1.42472185
H       -0.39712553      -0.89696978      -0.58030499      -0.53518637      -0.47128881      -0.63537326
H        0.07325991      -0.34485599       1.12782942       0.13031267       0.32528474      -0.72182850
H        1.01430579       0.29662248      -0.41196510       0.27416451       0.29036317      -0.06752009
4
Lattice="50.0 0.0 0.0 0.0 50.0 0.0 0.0 0.0 50.0" Properties=species:S:1:pos:R:3:dft_forces:R:3 smiles=C config_type=methane_rad1 dft_normal_mode_energy=0.04086275215303262 dft_normal_mode_temperature=300.0 dft_energy=-1082.1870152210727 pbc="F F F"
C        0.15640112      -0.21922100       0.02244292       0.11063822      -0.05405168      -0.08239588
H       -0.46202109      -0.85584334      -0.64852938       0.31126842       0.35797332       0.51595257
H        0.10532690      -0.22426005       1.11694198      -0.42270581      -0.30754338      -0.01060890
H        0.98840117       0.37699291      -0.35969201       0.00079917       0.00362174      -0.42294778
4
Lattice="50.0 0.0 0.0 0.0 50.0 0.0 0.0 0.0 50.0" Properties=species:S:1:pos:R:3:dft_forces:R:3 smiles=C config_type=methane_rad1 dft_normal_mode_energy=0.03129859749179568 dft_normal_mode_temperature=300.0 dft_energy=-1082.192534839132 pbc="F F F"
C        0.15650836      -0.20849048       0.02828358       0.40649823      -0.12791481      -1.02600639
H       -0.44271234      -0.88007951      -0.63408987       0.31108491       0.45634437       0.46585240
H        0.05884232      -0.30203892       1.11497670       0.04619512       0.09715612      -0.00196418
H        1.01430007       0.35115186      -0.44176202      -0.76377825      -0.42558568       0.56211818
4
Lattice="50.0 0.0 0.0 0.0 50.0 0.0 0.0 0.0 50.0" Properties=species:S:1:pos:R:3:dft_forces:R:3 smiles=C config_type=methane_rad1 dft_normal_mode_energy=0.08581303358199596 dft_normal_mode_temperature=300.0 dft_energy=-1082.1420178205865 pbc="F F F"
C        0.16586938      -0.20729166       0.03425497      -0.47487568      -0.80335430      -1.77951217
H       -0.46302297      -0.86854998      -0.64309953       0.58061748       0.71185434       0.75498581
H        0.00094892      -0.32338214       1.10655335       0.33389854       0.30617832       0.16490416
H        0.98095535       0.34667264      -0.49548724      -0.43964033      -0.21467836       0.85962220
4
Lattice="50.0 0.0 0.0 0.0 50.0 0.0 0.0 0.0 50.0" Properties=species:S:1:pos:R:3:dft_forces:R:3 smiles=C config_type=methane_rad1 dft_normal_mode_energy=0.09530224171823719 dft_normal_mode_temperature=300.0 dft_energy=-1082.0964331512325 pbc="F F F"
C        0.14523693      -0.18340024       0.03046186       0.12567122      -1.33835480      -1.35825079
H       -0.37100994      -0.95960221      -0.61639192       0.22824163       0.90050765       0.55794044
H        0.08384289      -0.41463555       1.10254959       0.23710125       0.43636777       0.03674348
H        1.05191708       0.24433069      -0.47298011      -0.59101410       0.00147939       0.76356688
4
Lattice="50.0 0.0 0.0 0.0 50.0 0.0 0.0 0.0 50.0" Properties=species:S:1:pos:R:3:dft_forces:R:3 smiles=C config_type=methane_rad1 dft_normal_mode_energy=0.02073425129213079 dft_normal_mode_temperature=300.0 dft_energy=-1082.20267782338 pbc="F F F"
C        0.14968312      -0.20655045       0.02329796       0.74615861       0.15183975      -0.27447653
H       -0.42113500      -0.89392766      -0.61934344       0.04240046       0.17100423       0.12890557
H        0.10255591      -0.29696628       1.11378874      -0.17702806      -0.03138391       0.02088562
H        1.03034175       0.33681875      -0.39590863      -0.61153101      -0.29146006       0.12468534
4
Lattice="50.0 0.0 0.0 0.0 50.0 0.0 0.0 0.0 50.0" Properties=species:S:1:pos:R:3:dft_forces:R:3 smiles=C config_type=methane_rad1 dft_normal_mode_energy=0.07628759604322402 dft_normal_mode_temperature=300.0 dft_energy=-1082.1495342130365 pbc="F F F"
C        0.16031897      -0.21563012       0.03643193       0.07575181      -0.13899190      -0.88779657
H       -0.40874406      -0.81169125      -0.69351548      -0.35317007      -0.17883922       0.61621174
H        0.04747503      -0.26760828       1.12992471       0.02480130       0.01050538      -0.32293976
H        0.94628953       0.33339815      -0.49438704       0.25261696       0.30732574       0.59452459
4
Lattice="50.0 0.0 0.0 0.0 50.0 0.0 0.0 0.0 50.0" Properties=species:S:1:pos:R:3:dft_forces:R:3 smiles=C config_type=methane_rad1 dft_normal_mode_energy=0.18097296300774576 dft_normal_mode_temperature=300.0 dft_energy=-1082.0519944342163 pbc="F F F"
C        0.17259094      -0.24713469       0.01658276       1.60333800       1.45679456       2.60971153
H       -0.50348044      -0.71837501      -0.60077838      -1.77237570      -1.28539698      -1.57730533
H        0.04475075      -0.11811469       1.10303996      -0.44317911      -0.54586500      -0.10578622
H        0.89750618       0.46595643      -0.32372332       0.61221681       0.37446743      -0.92661998
4
Lattice="50.0 0.0 0.0 0.0 50.0 0.0 0.0 0.0 50.0" Properties=species:S:1:pos:R:3:dft_forces:R:3 smiles=C config_type=methane_rad1 dft_normal_mode_energy=0.09223326185719456 dft_normal_mode_temperature=300.0 dft_energy=-1082.1350284406278 pbc="F F F"
C        0.15917566      -0.22008413       0.03642513       1.54108372       1.05407976      -2.01981607
H       -0.41679423      -0.80106668      -0.66002468      -0.72278804      -0.60481087      -0.14343272
H        0.04217133      -0.26187508       1.09160730      -0.11195356      -0.01966406       1.16499569
H        0.97326478       0.37010992      -0.48947849      -0.70634213      -0.42960484       0.99825310
4
Lattice="50.0 0.0 0.0 0.0 50.0 0.0 0.0 0.0 50.0" Properties=species:S:1:pos:R:3:dft_forces:R:3 smiles=C config_type=methane_rad2 dft_normal_mode_energy=0.05598038584613065 dft_normal_mode_temperature=300.0 dft_energy=-1082.1709416724404 pbc="F F F"
C        0.08441468       0.21614396       0.14501060       1.88262799      -0.47204849      -0.64672880
H       -0.74024031       0.83622860      -0.12968870      -0.73994893       0.55148148      -0.25371320
H        0.10012568      -0.39768611       1.02482048      -0.37424344      -0.36675041       0.79566102
H        1.03604784       0.17070825      -0.44055948      -0.76843561       0.28731743       0.10478098
4
Lattice="50.0 0.0 0.0 0.0 50.0 0.0 0.0 0.0 50.0" Properties=species:S:1:pos:R:3:dft_forces:R:3 smiles=C config_type=methane_rad2 dft_normal_mode_energy=0.10109412715739637 dft_normal_mode_temperature=300.0 dft_energy=-1082.120501963919 pbc="F F F"
C        0.09431516       0.22017568       0.14107475       1.03775678      -2.06655666       2.19357570
H       -0.72893726       0.79263249      -0.11035415      -1.96690806       1.48383951      -0.75804230
H        0.02773619      -0.41731913       1.06860589       0.14485683       0.55990013      -0.84468536
H        0.97915127       0.18590230      -0.45678659       0.78429445       0.02281701      -0.59084804
4
Lattice="50.0 0.0 0.0 0.0 50.0 0.0 0.0 0.0 50.0" Properties=species:S:1:pos:R:3:dft_forces:R:3 smiles=C config_type=methane_rad2 dft_normal_mode_energy=0.056798856171645644 dft_normal_mode_temperature=300.0 dft_energy=-1082.1712704391819 pbc="F F F"
C        0.08874072       0.20610652       0.14209025       1.50592076       0.19160293      -1.23866778
H       -0.73729222       0.84785471      -0.09250819      -0.59501733       0.56063599      -0.37652619
H        0.04148852      -0.34565257       1.04924303       0.08307542      -0.73771682       1.03066123
H        1.04019711       0.22664719      -0.46735525      -0.99397885      -0.01452210       0.58453274
4
Lattice="50.0 0.0 0.0 0.0 50.0 0.0 0.0 0.0 50.0" Properties=species:S:1:pos:R:3:dft_forces:R:3 smiles=C config_type=methane_rad2 dft_normal_mode_energy=0.06626165384699857 dft_normal_mode_temperature=300.0 dft_energy=-1082.16347561817 pbc="F F F"
C        0.09516296       0.20222500       0.14291465      -0.82597289       0.87657984      -0.30066190
H       -0.77665991       0.89414665      -0.12956313       1.13767695      -0.94112365       0.34128855
H        0.02760842      -0.37033278       1.09449613       0.22035128       0.24137969      -0.57477797
H        1.01691878       0.25128790      -0.48537844      -0.53205534      -0.17683588       0.53415133
4
Lattice="50.0 0.0 0.0 0.0 50.0 0.0 0.0 0.0 50.0" Properties=species:S:1:pos:R:3:dft_forces:R:3 smiles=C config_type=methane_rad2 dft_normal_mode_energy=0.011902047139622767 dft_normal_mode_temperature=300.0 dft_energy=-1082.2153554612692 pbc="F F F"
C        0.09776901       0.22323551       0.14899404       0.28803344      -0.42297356       0.14516164
H       -0.78636839       0.80003282      -0.13811932       0.08662739       0.09581034      -0.15057665
H        0.02063298      -0.43165331       1.03447640       0.08591609       0.18369419      -0.20898355
H        1.00251758       0.15638277      -0.48926537      -0.46057692       0.14346903       0.21439857
4
Lattice="50.0 0.0 0.0 0.0 50.0 0.0 0.0 0.0 50.0" Properties=species:S:1:pos:R:3:dft_forces:R:3 smiles=C config_type=methane_rad2 dft_normal_mode_energy=0.06540759232704002 dft_normal_mode_temperature=300.0 dft_energy=-1082.1661453733489 pbc="F F F"
C        0.09457062       0.20847778       0.14611766      -0.67973121       0.18208739       0.35019160
H       -0.76330553       0.87895137      -0.16345479       0.76443376      -0.75908988       0.47330850
H        0.04209730      -0.41241798       1.09692163       0.08562765       0.74418065      -1.15425455
H        0.99612509       0.23406752      -0.49208727      -0.17033020      -0.16717817       0.33075445
4
Lattice="50.0 0.0 0.0 0.0 50.0 0.0 0.0 0.0 50.0" Properties=species:S:1:pos:R:3:dft_forces:R:3 smiles=C config_type=methane_rad2 dft_normal_mode_energy=0.11644381831100706 dft_normal_mode_temperature=300.0 dft_energy=-1082.0547683800783 pbc="F F F"
C        0.08622412       0.18206109       0.11559653      -0.37360116       0.85991986       1.21470093
H       -0.75182342       0.94242723       0.02962014       0.97887867      -0.63025259      -0.60702584
H        0.03677705      -0.24254491       1.15839836       0.43695774      -0.11995397      -0.94279910
H        1.08947867       0.31545550      -0.38290312      -1.04223524      -0.10971330       0.33512400
4
Lattice="50.0 0.0 0.0 0.0 50.0 0.0 0.0 0.0 50.0" Properties=species:S:1:pos:R:3:dft_forces:R:3 smiles=C config_type=methane_rad2 dft_normal_mode_energy=0.022731203392380155 dft_normal_mode_temperature=300.0 dft_energy=-1082.204523405596 pbc="F F F"
C        0.09589230       0.20824222       0.13910907      -0.63092734       0.43139683      -0.04198021
H       -0.78067529       0.85015564      -0.08510160       0.53115436      -0.16810723      -0.21701209
H        0.02161353      -0.35831735       1.06084540       0.20088631      -0.32999194       0.30543117
H        1.01823350       0.21156466      -0.45084333      -0.10111332       0.06670234      -0.04643887
4
Lattice="50.0 0.0 0.0 0.0 50.0 0.0 0.0 0.0 50.0" Properties=species:S:1:pos:R:3:dft_forces:R:3 smiles=C config_type=methane_rad2 dft_normal_mode_energy=0.2187817294609766 dft_normal_mode_temperature=300.0 dft_energy=-1082.0230138527995 pbc="F F F"
C        0.08481055       0.21481928       0.13446971       0.79960379      -2.60982508       3.19792850
H       -0.70184035       0.85064209      -0.12945146      -1.60048433       1.11933164      -0.34876213
H        0.10253189      -0.43378143       1.12353261      -0.35750147       1.41439920      -1.95721362
H        0.99053536       0.20816973      -0.41390011       1.15838201       0.07609424      -0.89195275
4
Lattice="50.0 0.0 0.0 0.0 50.0 0.0 0.0 0.0 50.0" Properties=species:S:1:pos:R:3:dft_forces:R:3 smiles=C config_type=methane_rad2 dft_normal_mode_energy=0.05409491778464786 dft_normal_mode_temperature=300.0 dft_energy=-1082.1778640501843 pbc="F F F"
C        0.09394932       0.22276493       0.16195378       1.01355074      -0.09769761      -0.80057024
H       -0.72353665       0.80504970      -0.22742605      -0.83236237       0.26885402       0.21363692
H        0.05226806      -0.45702509       1.00889673      -0.21563361      -0.03640294       0.23864574
H        0.95355950       0.18235176      -0.52881500       0.03444524      -0.13475347       0.34828758
4
Lattice="50.0 0.0 0.0 0.0 50.0 0.0 0.0 0.0 50.0" Properties=species:S:1:pos:R:3:dft_forces:R:3 smiles=C config_type=methane_rad3 dft_normal_mode_energy=0.055899309751702174 dft_normal_mode_temperature=300.0 dft_energy=-1082.1735894074038 pbc="F F F"
C       -0.02440828       0.08739037      -0.27655614       1.10652433      -0.20690118       0.02275677
H       -0.75276891       0.82332237       0.04876284       0.11140021       0.55004147       0.11999870
H       -0.41235460      -0.90946813      -0.43697813      -0.10384824      -0.55043866      -0.18468658
H        1.09593122       0.21069438      -0.25774695      -1.11407630       0.20729837       0.04193111
4
Lattice="50.0 0.0 0.0 0.0 50.0 0.0 0.0 0.0 50.0" Properties=species:S:1:pos:R:3:dft_forces:R:3 smiles=C config_type=methane_rad3 dft_normal_mode_energy=0.01813903466621341 dft_normal_mode_temperature=300.0 dft_energy=-1082.2091817979 pbc="F F F"
C       -0.02471315       0.07828011      -0.25471486      -0.37644753      -0.47225957      -0.22439430
H       -0.72017456       0.91098738      -0.02902703       0.26678018      -0.40624899      -0.08351443
H       -0.39733614      -0.93612023      -0.54328545       0.08729474       0.75256897       0.24916290
H        1.05194423       0.25827382      -0.33376732       0.02237261       0.12593959       0.05874583
4
Lattice="50.0 0.0 0.0 0.0 50.0 0.0 0.0 0.0 50.0" Properties=species:S:1:pos:R:3:dft_forces:R:3 smiles=C config_type=methane_rad3 dft_normal_mode_energy=0.021830352444600187 dft_normal_mode_temperature=300.0 dft_energy=-1082.2060150290413 pbc="F F F"
C       -0.03008289       0.08349583      -0.28435137       1.01999375      -0.00006053       0.19567906
H       -0.69021078       0.86730142       0.08494659      -0.20917098       0.10408337      -0.00809757
H       -0.38312254      -0.94043424      -0.41799631      -0.18973859      -0.07630719      -0.07593267
H        1.07176515       0.24408126      -0.22006680      -0.62108418      -0.02771565      -0.11164882
4
Lattice="50.0 0.0 0.0 0.0 50.0 0.0 0.0 0.0 50.0" Properties=species:S:1:pos:R:3:dft_forces:R:3 smiles=C config_type=methane_rad3 dft_normal_mode_energy=0.05570060333641762 dft_normal_mode_temperature=300.0 dft_energy=-1082.1725000069114 pbc="F F F"
C       -0.03147143       0.08822571      -0.27867109       1.43683351      -1.83631961      -0.48121309
H       -0.67712263       0.84727362       0.06116960      -1.07091045       1.14852255       0.47709332
H       -0.36990952      -0.95448813      -0.44035220      -0.14800251       0.48934008       0.03119303
H        1.06200835       0.22180772      -0.24159448      -0.21792055       0.19845698      -0.02707326
4
Lattice="50.0 0.0 0.0 0.0 50.0 0.0 0.0 0.0 50.0" Properties=species:S:1:pos:R:3:dft_forces:R:3 smiles=C config_type=methane_rad3 dft_normal_mode_energy=0.09079047208245379 dft_normal_mode_temperature=300.0 dft_energy=-1082.1334625536638 pbc="F F F"
C       -0.01963006       0.06408670      -0.23666936      -1.56180478       1.73226432       0.09752210
H       -0.72953742       0.96645495      -0.10402372       0.93000526      -1.48472925      -0.09289751
H       -0.41118969      -0.87670054      -0.61630060      -0.15148998      -0.26619576       0.00900127
H        1.01458186       0.31254487      -0.40065486       0.78328950       0.01866069      -0.01362586
4
Lattice="50.0 0.0 0.0 0.0 50.0 0.0 0.0 0.0 50.0" Properties=species:S:1:pos:R:3:dft_forces:R:3 smiles=C config_type=methane_rad3 dft_normal_mode_energy=0.0374797129584357 dft_normal_mode_temperature=300.0 dft_energy=-1082.1870212697554 pbc="F F F"
C       -0.02309558       0.07914162      -0.24664519      -0.53824987      -0.21106583      -0.28333635
H       -0.75323143       0.90967982      -0.05927159       0.71490494      -0.60365770      -0.10926162
H       -0.38818680      -0.91776836      -0.57147794      -0.07943526       0.45829585       0.23384447
H        1.05657334       0.23097271      -0.37144166      -0.09721981       0.35642768       0.15875349
4
Lattice="50.0 0.0 0.0 0.0 50.0 0.0 0.0 0.0 50.0" Properties=species:S:1:pos:R:3:dft_forces:R:3 smiles=C config_type=methane_rad3 dft_normal_mode_energy=0.02262655594865499 dft_normal_mode_temperature=300.0 dft_energy=-1082.2062340444259 pbc="F F F"
C       -0.02079948       0.07622564      -0.25404548      -0.52111898      -0.19209805      -0.03683505
H       -0.71805871       0.87381661      -0.04522108      -0.27599705       0.48414987       0.16716354
H       -0.42331887      -0.88896695      -0.53498689      -0.06792170      -0.45385207      -0.09784917
H        1.02917401       0.27277436      -0.33383909       0.86503774       0.16180025      -0.03247931
4
Lattice="50.0 0.0 0.0 0.0 50.0 0.0 0.0 0.0 50.0" Properties=species:S:1:pos:R:3:dft_forces:R:3 smiles=C config_type=methane_rad3 dft_normal_mode_energy=0.06077073336252453 dft_normal_mode_temperature=300.0 dft_energy=-1082.159724047074 pbc="F F F"
C       -0.02569574       0.07834168      -0.29501529      -0.58834381       1.47105797       0.96130481
H       -0.69741497       0.89771883       0.12986528       0.60472988      -1.06630419      -0.65152216
H       -0.40348785      -0.93907666      -0.37963484      -0.07261827      -0.20411052      -0.11541198
H        1.04706185       0.27371166      -0.17632869       0.05623219      -0.20064326      -0.19437067
4
Lattice="50.0 0.0 0.0 0.0 50.0 0.0 0.0 0.0 50.0" Properties=species:S:1:pos:R:3:dft_forces:R:3 smiles=C config_type=methane_rad3 dft_normal_mode_energy=0.10467889475867215 dft_normal_mode_temperature=300.0 dft_energy=-1082.1184027113393 pbc="F F F"
C       -0.03317224       0.08051170      -0.24539935       2.04253869      -2.62931502      -0.96933956
H       -0.65992742       0.89498910      -0.07051327      -1.49731949       1.46705310       0.36674620
H       -0.36136516      -0.94542667      -0.58121644      -0.11729868       1.07382895       0.42599572
H        1.05652164       0.25699896      -0.36530567      -0.42792052       0.08843297       0.17659764
4
Lattice="50.0 0.0 0.0 0.0 50.0 0.0 0.0 0.0 50.0" Properties=species:S:1:pos:R:3:dft_forces:R:3 smiles=C config_type=methane_rad3 dft_normal_mode_energy=0.06833934333373769 dft_normal_mode_temperature=300.0 dft_energy=-1082.164027577407 pbc="F F F"
C       -0.02378393       0.08381892      -0.24324185       0.00722891      -1.83150463      -0.59533668
H       -0.73191705       0.86566211      -0.08104519      -0.47808223       0.88335743       0.22581484
H       -0.38211185      -0.91068711      -0.57874274      -0.13746455       0.38041987       0.25033518
H        1.03738535       0.21217758      -0.38294479       0.60831787       0.56772734       0.11918666
4
Lattice="50.0 0.0 0.0 0.0 50.0 0.0 0.0 0.0 50.0" Properties=species:S:1:pos:R:3:dft_forces:R:3 smiles=C config_type=methane_rad4 dft_normal_mode_energy=0.08786161642973825 dft_normal_mode_temperature=300.0 dft_energy=-1082.1413063291564 pbc="F F F"
C       -0.24952036      -0.07829019       0.09675335      -0.69792506       2.47698122      -0.20767277
H       -0.57175458       0.99639457      -0.10675729       0.27705654      -1.41790021      -0.04249761
H       -0.26787555      -0.85218621      -0.63369044      -0.12831890      -0.69819557      -0.91356765
H        0.20117780      -0.25118071       1.04252863       0.54918742      -0.36088544       1.16373804
4
Lattice="50.0 0.0 0.0 0.0 50.0 0.0 0.0 0.0 50.0" Properties=species:S:1:pos:R:3:dft_forces:R:3 smiles=C config_type=methane_rad4 dft_normal_mode_energy=0.052505037459913736 dft_normal_mode_temperature=300.0 dft_energy=-1082.1746736854345 pbc="F F F"
C       -0.23500447      -0.06945749       0.09051558      -0.52170232       0.41855860      -0.80081834
H       -0.62481272       0.96470202      -0.06304252       0.13463081      -0.75365954      -0.33794334
H       -0.32488482      -0.91065083      -0.63401919      -0.04645240       0.69728969       0.26544514
H        0.13834807      -0.26629446       1.07349816       0.43352391      -0.36218875       0.87331654
4
Lattice="50.0 0.0 0.0 0.0 50.0 0.0 0.0 0.0 50.0" Properties=species:S:1:pos:R:3:dft_forces:R:3 smiles=C config_type=methane_rad4 dft_normal_mode_energy=0.030116264896544027 dft_normal_mode_temperature=300.0 dft_energy=-1082.200247182868 pbc="F F F"
C       -0.22317771      -0.05979479       0.09142854       0.16755779      -0.97580580       0.32547806
H       -0.68298465       0.88804960      -0.12054891      -0.21022671       0.75394699      -0.01234022
H       -0.38107973      -0.87717696      -0.61710872       0.06167020      -0.05498734      -0.15047175
H        0.11184088      -0.33827295       1.10323018      -0.01900127       0.27684615      -0.16266609
4