
                                 *****************
                                 * O   R   C   A *
                                 *****************

           --- An Ab Initio, DFT and Semiempirical electronic structure package ---

                  #######################################################
                  #                        -***-                        #
                  #          Department of theory and spectroscopy      #
                  #               Directorship: Frank Neese             #
                  #        Max Planck Institute fuer Kohlenforschung    #
                  #                Kaiser Wilhelm Platz 1               #
                  #                 D-45470 Muelheim/Ruhr               #
                  #                      Germany                        #
                  #                                                     #
                  #                  All rights reserved                #
                  #                        -***-                        #
                  #######################################################


                         Program Version 4.2.1 -  RELEASE  -


 With contributions from (in alphabetic order):
   Daniel Aravena         : Magnetic Suceptibility
   Michael Atanasov       : Ab Initio Ligand Field Theory (pilot matlab implementation)
   Alexander A. Auer      : GIAO ZORA, VPT2
   Ute Becker             : Parallelization
   Giovanni Bistoni       : ED, misc. LED, open-shell LED, HFLD
   Martin Brehm           : Molecular dynamics
   Dmytro Bykov           : SCF Hessian
   Vijay G. Chilkuri      : MRCI spin determinant printing, contributions to CSF-ICE
   Dipayan Datta          : RHF DLPNO-CCSD density
   Achintya Kumar Dutta   : EOM-CC, STEOM-CC
   Dmitry Ganyushin       : Spin-Orbit,Spin-Spin,Magnetic field MRCI
   Miquel Garcia          : C-PCM Hessian, Gaussian charge scheme
   Yang Guo               : DLPNO-NEVPT2, CIM, IAO-localization
   Andreas Hansen         : Spin unrestricted coupled pair/coupled cluster methods
   Benjamin Helmich-Paris : CASSCF linear response (MC-RPA)
   Lee Huntington         : MR-EOM, pCC
   Robert Izsak           : Overlap fitted RIJCOSX, COSX-SCS-MP3, EOM
   Christian Kollmar      : KDIIS, OOCD, Brueckner-CCSD(T), CCSD density
   Simone Kossmann        : Meta GGA functionals, TD-DFT gradient, OOMP2, MP2 Hessian
   Martin Krupicka        : AUTO-CI
   Lucas Lang             : DCDCAS
   Dagmar Lenk            : GEPOL surface, SMD
   Dimitrios Liakos       : Extrapolation schemes; Compound Job, initial MDCI parallelization
   Dimitrios Manganas     : Further ROCIS development; embedding schemes
   Dimitrios Pantazis     : SARC Basis sets
   Taras Petrenko         : DFT Hessian,TD-DFT gradient, ASA, ECA, R-Raman, ABS, FL, XAS/XES, NRVS
   Peter Pinski           : DLPNO-MP2, DLPNO-MP2 Gradient
   Christoph Reimann      : Effective Core Potentials
   Marius Retegan         : Local ZFS, SOC
   Christoph Riplinger    : Optimizer, TS searches, QM/MM, DLPNO-CCSD(T), (RO)-DLPNO pert. Triples
   Tobias Risthaus        : Range-separated hybrids, TD-DFT gradient, RPA, STAB
   Michael Roemelt        : Original ROCIS implementation
   Masaaki Saitow         : Open-shell DLPNO-CCSD energy and density
   Barbara Sandhoefer     : DKH picture change effects
   Avijit Sen             : IP-ROCIS
   Kantharuban Sivalingam : CASSCF convergence, NEVPT2, FIC-MRCI
   Bernardo de Souza      : ESD, SOC TD-DFT
   Georgi Stoychev        : AutoAux, RI-MP2 NMR
   Willem Van den Heuvel  : Paramagnetic NMR
   Boris Wezisla          : Elementary symmetry handling
   Frank Wennmohs         : Technical directorship


 We gratefully acknowledge several colleagues who have allowed us to
 interface, adapt or use parts of their codes:
   Stefan Grimme, W. Hujo, H. Kruse,             : VdW corrections, initial TS optimization,
                  C. Bannwarth                     DFT functionals, gCP, sTDA/sTD-DF
   Ed Valeev, F. Pavosevic, A. Kumar             : LibInt (2-el integral package), F12 methods
   Garnet Chan, S. Sharma, J. Yang, R. Olivares  : DMRG
   Ulf Ekstrom                                   : XCFun DFT Library
   Mihaly Kallay                                 : mrcc  (arbitrary order and MRCC methods)
   Andreas Klamt, Michael Diedenhofen            : otool_cosmo (COSMO solvation model)
   Jiri Pittner, Ondrej Demel                    : Mk-CCSD
   Frank Weinhold                                : gennbo (NPA and NBO analysis)
   Christopher J. Cramer and Donald G. Truhlar   : smd solvation model
   Lars Goerigk                                  : TD-DFT with DH, B97 family of functionals
   V. Asgeirsson, H. Jonsson                     : NEB implementation
   FAccTs GmbH                                   : IRC, NEB, NEB-TS, Multilevel, MM, QM/MM, CI optimization
   S Lehtola, MJT Oliveira, MAL Marques          : LibXC Library


 Your calculation uses the libint2 library for the computation of 2-el integrals
 For citations please refer to: http://libint.valeyev.net

 Your ORCA version has been built with support for libXC version: 4.2.3
 For citations please refer to: https://tddft.org/programs/libxc/

 This ORCA versions uses:
   CBLAS   interface :  Fast vector & matrix operations
   LAPACKE interface :  Fast linear algebra routines
   SCALAPACK package :  Parallel linear algebra routines


Your calculation utilizes the atom-pairwise dispersion correction
with the Becke-Johnson damping scheme (D3BJ)
Cite in your paper:
S.Grimme, S.Ehrlich, L.Goerigk, J Comput Chem, (2011), 32, 1456–1465 
S.Grimme, J.Antony, S.Ehrlich and H.Krieg, J.Chem.Phys., 132, (2010), 154104 
   

----- Orbital basis set information -----
Your calculation utilizes the basis: def2-SV(P)
   F. Weigend and R. Ahlrichs, Phys. Chem. Chem. Phys. 7, 3297 (2005).

----- AuxJ basis set information -----
Your calculation utilizes the auxiliary basis: def2/J
   F. Weigend, Phys. Chem. Chem. Phys. 8, 1057 (2006).

================================================================================
                                        WARNINGS
                       Please study these warnings very carefully!
================================================================================


WARNING: Geometry Optimization
  ===> : Switching off AutoStart
         For restart on a previous wavefunction, please use MOREAD

INFO   : the flag for use of LIBINT has been found!

================================================================================
                                       INPUT FILE
================================================================================
NAME = orca0.inp
|  1> ! UKS B3LYP def2-SV(P) def2/J D3BJ Opt
|  2> %scf Convergence VeryTight
|  3> SmearTemp 2000
|  4> maxiter 500
|  5> end
|  6> *xyz 0 1
|  7> C 4.838956 -0.041791 -0.146837
|  8> C 3.831633 1.067931 -0.4127
|  9> C 2.484347 0.420645 -0.71383
| 10> C 1.649767 0.451144 0.561597
| 11> C 0.210456 0.240353 0.217457
| 12> C -0.243093 -1.182399 0.255116
| 13> C -1.694997 -1.180997 0.721183
| 14> C -2.545626 -0.478538 -0.313671
| 15> C -3.50796 0.502583 0.293112
| 16> C -4.955993 0.08002 0.130814
| 17> H 5.441185 -0.233398 -1.067541
| 18> H 5.472787 0.203162 0.721137
| 19> H 4.302528 -1.001227 0.060336
| 20> H 3.783883 1.698458 0.497009
| 21> H 4.175353 1.69636 -1.273333
| 22> H 1.92015 1.006538 -1.463619
| 23> H 2.648426 -0.630183 -1.020124
| 24> H 2.066391 -0.284837 1.26858
| 25> H 1.760241 1.496933 0.945856
| 26> H 0.05338 0.630801 -0.816335
| 27> H -0.402951 0.858348 0.914697
| 28> H 0.356047 -1.842116 0.899616
| 29> H -0.207809 -1.619215 -0.773339
| 30> H -2.073841 -2.199613 0.91981
| 31> H -1.692533 -0.649543 1.695483
| 32> H -3.073669 -1.272173 -0.882791
| 33> H -1.911612 0.088901 -1.036207
| 34> H -3.290702 0.66117 1.379866
| 35> H -3.433263 1.512119 -0.182316
| 36> H -5.517647 0.566874 0.967131
| 37> H -5.405384 0.463414 -0.811154
| 38> H -5.038449 -1.029724 0.218875
| 39> *
| 40> 
| 41>                          ****END OF INPUT****
================================================================================

                       *****************************
                       * Geometry Optimization Run *
                       *****************************

Geometry optimization settings:
Update method            Update   .... BFGS
Choice of coordinates    CoordSys .... Z-matrix Internals
Initial Hessian          InHess   .... Almoef's Model

Convergence Tolerances:
Energy Change            TolE     ....  5.0000e-06 Eh
Max. Gradient            TolMAXG  ....  3.0000e-04 Eh/bohr
RMS Gradient             TolRMSG  ....  1.0000e-04 Eh/bohr
Max. Displacement        TolMAXD  ....  4.0000e-03 bohr
RMS Displacement         TolRMSD  ....  2.0000e-03 bohr
Strict Convergence                ....  False
------------------------------------------------------------------------------
                        ORCA OPTIMIZATION COORDINATE SETUP
------------------------------------------------------------------------------

The optimization will be done in new redundant internal coordinates
Making redundant internal coordinates   ...  (new redundants) done
Evaluating the initial hessian          ...  (Almloef) done
Evaluating the coordinates              ...  done
Calculating the B-matrix                .... done
Calculating the G-matrix                .... done
Diagonalizing the G-matrix              .... done
Small eigenvalue found = 4.358e-03
Small eigenvalue found = 5.872e-03
Small eigenvalue found = 1.602e-02
Small eigenvalue found = 2.560e-02
The first mode is                       ....   82
The number of degrees of freedom        ....   90

    -----------------------------------------------------------------
                    Redundant Internal Coordinates


    -----------------------------------------------------------------
         Definition                    Initial Value    Approx d2E/dq
    -----------------------------------------------------------------
      1. B(C   1,C   0)                  1.5221         0.384539   
      2. B(C   2,C   1)                  1.5247         0.380861   
      3. B(C   3,C   2)                  1.5245         0.381168   
      4. B(C   4,C   3)                  1.4948         0.425116   
      5. B(C   5,C   4)                  1.4938         0.426757   
      6. B(C   6,C   5)                  1.5249         0.380674   
      7. B(C   7,C   6)                  1.5126         0.398242   
      8. B(C   8,C   7)                  1.5023         0.413608   
      9. B(C   9,C   8)                  1.5171         0.391654   
     10. B(H  10,C   0)                  1.1167         0.326419   
     11. B(H  11,C   0)                  1.1023         0.344158   
     12. B(H  12,C   0)                  1.1186         0.324224   
     13. B(H  13,C   1)                  1.1079         0.337198   
     14. B(H  14,C   1)                  1.1197         0.322864   
     15. B(H  15,C   2)                  1.1062         0.339242   
     16. B(H  16,C   2)                  1.1068         0.338564   
     17. B(H  17,C   3)                  1.1023         0.344189   
     18. B(H  18,C   3)                  1.1196         0.322981   
     19. B(H  19,C   4)                  1.1162         0.327086   
     20. B(H  20,C   4)                  1.1155         0.327904   
     21. B(H  21,C   5)                  1.0998         0.347357   
     22. B(H  22,C   5)                  1.1179         0.324982   
     23. B(H  23,C   6)                  1.1048         0.341061   
     24. B(H  24,C   6)                  1.1098         0.334807   
     25. B(H  25,C   7)                  1.1102         0.334324   
     26. B(H  26,C   7)                  1.1163         0.326994   
     27. B(H  27,C   8)                  1.1195         0.323060   
     28. B(H  28,C   8)                  1.1184         0.324447   
     29. B(H  29,C   9)                  1.1189         0.323844   
     30. B(H  30,C   9)                  1.1119         0.332305   
     31. B(H  31,C   9)                  1.1163         0.326958   
     32. A(C   1,C   0,H  12)          109.8964         0.320305   
     33. A(C   1,C   0,H  11)          110.8577         0.323449   
     34. A(H  11,C   0,H  12)          108.6939         0.284092   
     35. A(C   1,C   0,H  10)          109.7534         0.320658   
     36. A(H  10,C   0,H  11)          112.1622         0.284390   
     37. A(H  10,C   0,H  12)          105.3166         0.281769   
     38. A(H  13,C   1,H  14)          108.9621         0.283007   
     39. A(C   2,C   1,H  14)          110.9593         0.319582   
     40. A(C   0,C   1,H  14)          109.8940         0.320085   
     41. A(C   0,C   1,H  13)          107.4593         0.322368   
     42. A(C   0,C   1,C   2)          108.0447         0.366364   
     43. A(C   2,C   1,H  13)          111.4501         0.321861   
     44. A(C   3,C   2,H  15)          106.0956         0.322222   
     45. A(C   3,C   2,H  16)          109.3705         0.322116   
     46. A(C   1,C   2,H  16)          109.0697         0.322074   
     47. A(C   1,C   2,H  15)          111.0803         0.322179   
     48. A(C   1,C   2,C   3)          108.0595         0.365811   
     49. A(H  15,C   2,H  16)          113.0096         0.285372   
     50. A(C   4,C   3,H  18)          107.8026         0.325411   
     51. A(C   4,C   3,H  17)          114.6724         0.328838   
     52. A(C   2,C   3,C   4)          109.3709         0.372785   
     53. A(C   2,C   3,H  17)          108.4399         0.322987   
     54. A(C   2,C   3,H  18)          104.5840         0.319643   
     55. A(H  17,C   3,H  18)          111.4836         0.283926   
     56. A(C   5,C   4,H  19)          108.2883         0.326294   
     57. A(C   3,C   4,H  19)          107.4217         0.326088   
     58. A(C   3,C   4,C   5)          114.8888         0.380135   
     59. A(C   5,C   4,H  20)          110.1787         0.326429   
     60. A(C   3,C   4,H  20)          107.9058         0.326222   
     61. A(H  19,C   4,H  20)          107.9227         0.282351   
     62. A(C   4,C   5,C   6)          107.2131         0.372949   
     63. A(C   6,C   5,H  22)          108.1551         0.319898   
     64. A(C   4,C   5,H  22)          109.8393         0.325948   
     65. A(C   6,C   5,H  21)          109.8854         0.323404   
     66. A(C   4,C   5,H  21)          114.8786         0.329546   
     67. A(H  21,C   5,H  22)          106.7103         0.284604   
     68. A(C   5,C   6,C   7)          109.0730         0.368539   
     69. A(H  23,C   6,H  24)          106.5254         0.285114   
     70. A(C   7,C   6,H  24)          112.3012         0.323846   
     71. A(C   5,C   6,H  24)          105.4648         0.321460   
     72. A(C   7,C   6,H  23)          110.9987         0.324832   
     73. A(C   5,C   6,H  23)          112.3711         0.322436   
     74. A(C   6,C   7,C   8)          112.7804         0.373839   
     75. A(H  25,C   7,H  26)          107.5609         0.283189   
     76. A(C   8,C   7,H  26)          107.0551         0.324605   
     77. A(C   6,C   7,H  26)          111.0702         0.322594   
     78. A(C   8,C   7,H  25)          111.6683         0.325790   
     79. A(C   6,C   7,H  25)          106.6310         0.323769   
     80. A(H  27,C   8,H  28)          105.7729         0.281348   
     81. A(C   9,C   8,H  28)          105.6459         0.321302   
     82. A(C   7,C   8,H  28)          112.0266         0.324188   
     83. A(C   9,C   8,H  27)          109.1788         0.321077   
     84. A(C   7,C   8,H  27)          111.1172         0.323960   
     85. A(C   7,C   8,C   9)          112.7240         0.372766   
     86. A(H  30,C   9,H  31)          112.3200         0.282919   
     87. A(H  29,C   9,H  31)          109.6656         0.281790   
     88. A(C   8,C   9,H  31)          109.8134         0.321708   
     89. A(H  29,C   9,H  30)          106.2789         0.282499   
     90. A(C   8,C   9,H  30)          112.3557         0.322564   
     91. A(C   8,C   9,H  29)          106.1384         0.321205   
     92. D(C   2,C   1,C   0,H  11)   -136.7939         0.011771   
     93. D(C   2,C   1,C   0,H  12)    -16.6176         0.011771   
     94. D(H  13,C   1,C   0,H  11)    -16.4197         0.011771   
     95. D(H  14,C   1,C   0,H  11)    102.0094         0.011771   
     96. D(H  13,C   1,C   0,H  10)   -140.8739         0.011771   
     97. D(C   2,C   1,C   0,H  10)     98.7518         0.011771   
     98. D(H  14,C   1,C   0,H  12)   -137.8143         0.011771   
     99. D(H  14,C   1,C   0,H  10)    -22.4449         0.011771   
    100. D(H  13,C   1,C   0,H  12)    103.7566         0.011771   
    101. D(C   3,C   2,C   1,H  13)    -19.2712         0.011558   
    102. D(C   3,C   2,C   1,H  14)   -140.8965         0.011558   
    103. D(H  15,C   2,C   1,H  13)     96.7187         0.011558   
    104. D(H  15,C   2,C   1,H  14)    -24.9066         0.011558   
    105. D(C   3,C   2,C   1,C   0)     98.5707         0.011558   
    106. D(H  16,C   2,C   1,H  13)   -138.0766         0.011558   
    107. D(H  16,C   2,C   1,H  14)    100.2981         0.011558   
    108. D(H  16,C   2,C   1,C   0)    -20.2347         0.011558   
    109. D(H  15,C   2,C   1,C   0)   -145.4394         0.011558   
    110. D(H  18,C   3,C   2,C   1)     46.8252         0.011576   
    111. D(H  17,C   3,C   2,H  16)     46.3833         0.011576   
    112. D(H  18,C   3,C   2,H  15)    -72.3733         0.011576   
    113. D(H  17,C   3,C   2,H  15)    168.5708         0.011576   
    114. D(C   4,C   3,C   2,H  15)     42.8628         0.011576   
    115. D(H  17,C   3,C   2,C   1)    -72.2308         0.011576   
    116. D(H  18,C   3,C   2,H  16)    165.4392         0.011576   
    117. D(C   4,C   3,C   2,H  16)    -79.3247         0.011576   
    118. D(C   4,C   3,C   2,C   1)    162.0613         0.011576   
    119. D(C   5,C   4,C   3,H  18)   -154.9249         0.014292   
    120. D(C   5,C   4,C   3,H  17)    -30.1185         0.014292   
    121. D(H  19,C   4,C   3,C   2)    -28.6209         0.014292   
    122. D(C   5,C   4,C   3,C   2)     91.9194         0.014292   
    123. D(H  20,C   4,C   3,H  18)    -31.5905         0.014292   
    124. D(H  20,C   4,C   3,H  17)     93.2160         0.014292   
    125. D(H  20,C   4,C   3,C   2)   -144.7462         0.014292   
    126. D(H  19,C   4,C   3,H  18)     84.5348         0.014292   
    127. D(H  19,C   4,C   3,H  17)   -150.6588         0.014292   
    128. D(H  22,C   5,C   4,H  20)    141.5839         0.014401   
    129. D(H  22,C   5,C   4,H  19)     23.7600         0.014401   
    130. D(H  22,C   5,C   4,C   3)    -96.3026         0.014401   
    131. D(H  21,C   5,C   4,H  20)    -98.1341         0.014401   
    132. D(H  21,C   5,C   4,H  19)    144.0420         0.014401   
    133. D(H  21,C   5,C   4,C   3)     23.9794         0.014401   
    134. D(C   6,C   5,C   4,H  20)     24.2898         0.014401   
    135. D(C   6,C   5,C   4,H  19)    -93.5341         0.014401   
    136. D(C   6,C   5,C   4,C   3)    146.4033         0.014401   
    137. D(H  24,C   6,C   5,H  22)   -174.4866         0.011547   
    138. D(H  24,C   6,C   5,H  21)     69.3845         0.011547   
    139. D(H  24,C   6,C   5,C   4)    -56.0946         0.011547   
    140. D(H  23,C   6,C   5,H  22)     69.8544         0.011547   
    141. D(H  23,C   6,C   5,H  21)    -46.2746         0.011547   
    142. D(H  23,C   6,C   5,C   4)   -171.7537         0.011547   
    143. D(C   7,C   6,C   5,H  22)    -53.6723         0.011547   
    144. D(C   7,C   6,C   5,H  21)   -169.8012         0.011547   
    145. D(C   7,C   6,C   5,C   4)     64.7196         0.011547   
    146. D(H  26,C   7,C   6,H  23)   -138.3552         0.012587   
    147. D(H  26,C   7,C   6,C   5)    -14.0173         0.012587   
    148. D(H  25,C   7,C   6,H  24)   -140.5752         0.012587   
    149. D(H  25,C   7,C   6,H  23)    -21.4488         0.012587   
    150. D(H  25,C   7,C   6,C   5)    102.8891         0.012587   
    151. D(C   8,C   7,C   6,H  24)    -17.6600         0.012587   
    152. D(C   8,C   7,C   6,H  23)    101.4664         0.012587   
    153. D(H  26,C   7,C   6,H  24)    102.5184         0.012587   
    154. D(C   8,C   7,C   6,C   5)   -134.1957         0.012587   
    155. D(H  28,C   8,C   7,H  26)      5.6317         0.013545   
    156. D(H  28,C   8,C   7,C   6)    128.0909         0.013545   
    157. D(H  27,C   8,C   7,H  26)   -112.4406         0.013545   
    158. D(H  27,C   8,C   7,H  25)    130.0766         0.013545   
    159. D(H  27,C   8,C   7,C   6)     10.0186         0.013545   
    160. D(C   9,C   8,C   7,H  26)    124.6338         0.013545   
    161. D(H  28,C   8,C   7,H  25)   -111.8512         0.013545   
    162. D(C   9,C   8,C   7,H  25)      7.1510         0.013545   
    163. D(C   9,C   8,C   7,C   6)   -112.9070         0.013545   
    164. D(H  31,C   9,C   8,H  28)    158.7675         0.012191   
    165. D(H  31,C   9,C   8,H  27)    -87.8863         0.012191   
    166. D(H  31,C   9,C   8,C   7)     36.1153         0.012191   
    167. D(H  30,C   9,C   8,H  28)     32.9888         0.012191   
    168. D(H  30,C   9,C   8,H  27)    146.3350         0.012191   
    169. D(H  30,C   9,C   8,C   7)    -89.6634         0.012191   
    170. D(H  29,C   9,C   8,H  28)    -82.7667         0.012191   
    171. D(H  29,C   9,C   8,H  27)     30.5795         0.012191   
    172. D(H  29,C   9,C   8,C   7)    154.5811         0.012191   
    -----------------------------------------------------------------

Number of atoms                         .... 32
Number of degrees of freedom            .... 172

Time needed for optimization step       :     1.57 sec

         *************************************************************
         *                GEOMETRY OPTIMIZATION CYCLE   1            *
         *************************************************************
---------------------------------
CARTESIAN COORDINATES (ANGSTROEM)
---------------------------------
  C      4.838956   -0.041791   -0.146837
  C      3.831633    1.067931   -0.412700
  C      2.484347    0.420645   -0.713830
  C      1.649767    0.451144    0.561597
  C      0.210456    0.240353    0.217457
  C     -0.243093   -1.182399    0.255116
  C     -1.694997   -1.180997    0.721183
  C     -2.545626   -0.478538   -0.313671
  C     -3.507960    0.502583    0.293112
  C     -4.955993    0.080020    0.130814
  H      5.441185   -0.233398   -1.067541
  H      5.472787    0.203162    0.721137
  H      4.302528   -1.001227    0.060336
  H      3.783883    1.698458    0.497009
  H      4.175353    1.696360   -1.273333
  H      1.920150    1.006538   -1.463619
  H      2.648426   -0.630183   -1.020124
  H      2.066391   -0.284837    1.268580
  H      1.760241    1.496933    0.945856
  H      0.053380    0.630801   -0.816335
  H     -0.402951    0.858348    0.914697
  H      0.356047   -1.842116    0.899616
  H     -0.207809   -1.619215   -0.773339
  H     -2.073841   -2.199613    0.919810
  H     -1.692533   -0.649543    1.695483
  H     -3.073669   -1.272173   -0.882791
  H     -1.911612    0.088901   -1.036207
  H     -3.290702    0.661170    1.379866
  H     -3.433263    1.512119   -0.182316
  H     -5.517647    0.566874    0.967131
  H     -5.405384    0.463414   -0.811154
  H     -5.038449   -1.029724    0.218875

----------------------------
CARTESIAN COORDINATES (A.U.)
----------------------------
  NO LB      ZA    FRAG     MASS         X           Y           Z
   0 C     6.0000    0    12.011    9.144302   -0.078974   -0.277482
   1 C     6.0000    0    12.011    7.240737    2.018097   -0.779890
   2 C     6.0000    0    12.011    4.694735    0.794904   -1.348943
   3 C     6.0000    0    12.011    3.117608    0.852539    1.061265
   4 C     6.0000    0    12.011    0.397704    0.454201    0.410934
   5 C     6.0000    0    12.011   -0.459379   -2.234410    0.482099
   6 C     6.0000    0    12.011   -3.203080   -2.231761    1.362838
   7 C     6.0000    0    12.011   -4.810536   -0.904306   -0.592752
   8 C     6.0000    0    12.011   -6.629084    0.949744    0.553901
   9 C     6.0000    0    12.011   -9.365469    0.151216    0.247203
  10 H     1.0000    0     1.008   10.282349   -0.441058   -2.017360
  11 H     1.0000    0     1.008   10.342069    0.383921    1.362751
  12 H     1.0000    0     1.008    8.130600   -1.892045    0.114019
  13 H     1.0000    0     1.008    7.150503    3.209620    0.939211
  14 H     1.0000    0     1.008    7.890274    3.205656   -2.406251
  15 H     1.0000    0     1.008    3.628558    1.902081   -2.765839
  16 H     1.0000    0     1.008    5.004800   -1.190873   -1.927755
  17 H     1.0000    0     1.008    3.904913   -0.538264    2.397269
  18 H     1.0000    0     1.008    3.326373    2.828793    1.787409
  19 H     1.0000    0     1.008    0.100874    1.192041   -1.542650
  20 H     1.0000    0     1.008   -0.761467    1.622043    1.728527
  21 H     1.0000    0     1.008    0.672831   -3.481095    1.700028
  22 H     1.0000    0     1.008   -0.392702   -3.059873   -1.461399
  23 H     1.0000    0     1.008   -3.918992   -4.156666    1.738189
  24 H     1.0000    0     1.008   -3.198424   -1.227458    3.203999
  25 H     1.0000    0     1.008   -5.808393   -2.404059   -1.668233
  26 H     1.0000    0     1.008   -3.612423    0.167999   -1.958147
  27 H     1.0000    0     1.008   -6.218526    1.249430    2.607569
  28 H     1.0000    0     1.008   -6.487927    2.857491   -0.344527
  29 H     1.0000    0     1.008  -10.426842    1.071237    1.827613
  30 H     1.0000    0     1.008  -10.214695    0.875726   -1.532859
  31 H     1.0000    0     1.008   -9.521289   -1.945896    0.413614

--------------------------------
INTERNAL COORDINATES (ANGSTROEM)
--------------------------------
 C      0   0   0     0.000000000000     0.00000000     0.00000000
 C      1   0   0     1.522125381952     0.00000000     0.00000000
 C      2   1   0     1.524741948164   108.04471511     0.00000000
 C      3   2   1     1.524522219494   108.05951874    98.57069123
 C      4   3   2     1.494818162855   109.37092916   162.06129582
 C      5   4   3     1.493769777839   114.88881404    91.91935178
 C      6   5   4     1.524875614373   107.21313600   146.40330326
 C      7   6   5     1.512594176783   109.07295792    64.71962644
 C      8   7   6     1.502288505343   112.78037742   225.80430863
 C      9   8   7     1.517135359440   112.72395125   247.09303655
 H      1   2   3     1.116731331389   109.75343591    98.75180860
 H      1   2   3     1.102325983294   110.85767839   223.20608982
 H      1   2   3     1.118567427207   109.89643657   343.38236405
 H      2   1   3     1.107887550661   107.45932216   120.37424295
 H      2   1   3     1.119712287657   109.89397817   238.80332449
 H      3   2   1     1.106242471965   111.08031753   214.56058112
 H      3   2   1     1.106786979622   109.06974648   339.76526826
 H      4   3   2     1.102301479644   108.43987429   287.76924572
 H      4   3   2     1.119613378036   104.58402433    46.82515100
 H      5   4   3     1.116175796971   107.42173489   331.37906356
 H      5   4   3     1.115495219745   107.90584418   215.25380844
 H      6   5   4     1.099807032933   114.87859650    23.97939058
 H      6   5   4     1.117932406515   109.83929261   263.69744779
 H      7   6   5     1.104786864930   112.37114512   188.24630021
 H      7   6   5     1.109824272312   105.46477908   303.90535641
 H      8   7   6     1.110217770293   106.63096673   102.88913387
 H      8   7   6     1.116252230552   111.07015584   345.98268853
 H      9   8   7     1.119546842097   111.11715739    10.01861496
 H      9   8   7     1.118380239583   112.02663820   128.09087363
 H     10   9   8     1.118887017317   106.13836629   154.58106829
 H     10   9   8     1.111866423246   112.35574222   270.33660574
 H     10   9   8     1.116281988206   109.81343924    36.11529214

---------------------------
INTERNAL COORDINATES (A.U.)
---------------------------
 C      0   0   0     0.000000000000     0.00000000     0.00000000
 C      1   0   0     2.876400113379     0.00000000     0.00000000
 C      2   1   0     2.881344706932   108.04471511     0.00000000
 C      3   2   1     2.880929479921   108.05951874    98.57069123
 C      4   3   2     2.824796947808   109.37092916   162.06129582
 C      5   4   3     2.822815787245   114.88881404    91.91935178
 C      6   5   4     2.881597299460   107.21313600   146.40330326
 C      7   6   5     2.858388745884   109.07295792    64.71962644
 C      8   7   6     2.838913849236   112.78037742   225.80430863
 C      9   8   7     2.866970337429   112.72395125   247.09303655
 H      1   2   3     2.110316381495   109.75343591    98.75180860
 H      1   2   3     2.083094218732   110.85767839   223.20608982
 H      1   2   3     2.113786099747   109.89643657   343.38236405
 H      2   1   3     2.093604057930   107.45932216   120.37424295
 H      2   1   3     2.115949572458   109.89397817   238.80332449
 H      3   2   1     2.090495309726   111.08031753   214.56058112
 H      3   2   1     2.091524280076   109.06974648   339.76526826
 H      4   3   2     2.083047913544   108.43987429   287.76924572
 H      4   3   2     2.115762660363   104.58402433    46.82515100
 H      5   4   3     2.109266573587   107.42173489   331.37906356
 H      5   4   3     2.107980469016   107.90584418   215.25380844
 H      6   5   4     2.078334092404   114.87859650    23.97939058
 H      6   5   4     2.112586084549   109.83929261   263.69744779
 H      7   6   5     2.087744611070   112.37114512   188.24630021
 H      7   6   5     2.097263931447   105.46477908   303.90535641
 H      8   7   6     2.098007534866   106.63096673   102.88913387
 H      8   7   6     2.109411012123   111.07015584   345.98268853
 H      9   8   7     2.115636925659   111.11715739    10.01861496
 H      9   8   7     2.113432366400   112.02663820   128.09087363
 H     10   9   8     2.114390037530   106.13836629   154.58106829
 H     10   9   8     2.101123037437   112.35574222   270.33660574
 H     10   9   8     2.109467245938   109.81343924    36.11529214

---------------------
BASIS SET INFORMATION
---------------------
There are 2 groups of distinct atoms

 Group   1 Type C   : 7s4p1d contracted to 3s2p1d pattern {511/31/1}
 Group   2 Type H   : 4s contracted to 2s pattern {31}

Atom   0C    basis set group =>   1
Atom   1C    basis set group =>   1
Atom   2C    basis set group =>   1
Atom   3C    basis set group =>   1
Atom   4C    basis set group =>   1
Atom   5C    basis set group =>   1
Atom   6C    basis set group =>   1
Atom   7C    basis set group =>   1
Atom   8C    basis set group =>   1
Atom   9C    basis set group =>   1
Atom  10H    basis set group =>   2
Atom  11H    basis set group =>   2
Atom  12H    basis set group =>   2
Atom  13H    basis set group =>   2
Atom  14H    basis set group =>   2
Atom  15H    basis set group =>   2
Atom  16H    basis set group =>   2
Atom  17H    basis set group =>   2
Atom  18H    basis set group =>   2
Atom  19H    basis set group =>   2
Atom  20H    basis set group =>   2
Atom  21H    basis set group =>   2
Atom  22H    basis set group =>   2
Atom  23H    basis set group =>   2
Atom  24H    basis set group =>   2
Atom  25H    basis set group =>   2
Atom  26H    basis set group =>   2
Atom  27H    basis set group =>   2
Atom  28H    basis set group =>   2
Atom  29H    basis set group =>   2
Atom  30H    basis set group =>   2
Atom  31H    basis set group =>   2
---------------------------------
AUXILIARY/J BASIS SET INFORMATION
---------------------------------
There are 2 groups of distinct atoms

 Group   1 Type C   : 12s5p4d2f1g contracted to 6s4p3d1f1g pattern {711111/2111/211/2/1}
 Group   2 Type H   : 5s2p1d contracted to 3s1p1d pattern {311/2/1}

Atom   0C    basis set group =>   1
Atom   1C    basis set group =>   1
Atom   2C    basis set group =>   1
Atom   3C    basis set group =>   1
Atom   4C    basis set group =>   1
Atom   5C    basis set group =>   1
Atom   6C    basis set group =>   1
Atom   7C    basis set group =>   1
Atom   8C    basis set group =>   1
Atom   9C    basis set group =>   1
Atom  10H    basis set group =>   2
Atom  11H    basis set group =>   2
Atom  12H    basis set group =>   2
Atom  13H    basis set group =>   2
Atom  14H    basis set group =>   2
Atom  15H    basis set group =>   2
Atom  16H    basis set group =>   2
Atom  17H    basis set group =>   2
Atom  18H    basis set group =>   2
Atom  19H    basis set group =>   2
Atom  20H    basis set group =>   2
Atom  21H    basis set group =>   2
Atom  22H    basis set group =>   2
Atom  23H    basis set group =>   2
Atom  24H    basis set group =>   2
Atom  25H    basis set group =>   2
Atom  26H    basis set group =>   2
Atom  27H    basis set group =>   2
Atom  28H    basis set group =>   2
Atom  29H    basis set group =>   2
Atom  30H    basis set group =>   2
Atom  31H    basis set group =>   2
------------------------------------------------------------------------------
                           ORCA GTO INTEGRAL CALCULATION
------------------------------------------------------------------------------

                         BASIS SET STATISTICS AND STARTUP INFO

 # of primitive gaussian shells          ...  208
 # of primitive gaussian functions       ...  328
 # of contracted shells                  ...  104
 # of contracted basis functions         ...  184
 Highest angular momentum                ...    2
 Maximum contraction depth               ...    5
 Integral package used                   ... LIBINT
 Integral threshhold            Thresh   ...  1.000e-12
 Primitive cut-off              TCut     ...  1.000e-14


------------------------------ INTEGRAL EVALUATION ----------------------------


 * One electron integrals 
 Pre-screening matrix                    ... done
 Shell pair data                         ... done (   0.002 sec)

-------------------------------------------------------------------------------
                                 ORCA SCF
-------------------------------------------------------------------------------

------------
SCF SETTINGS
------------
Hamiltonian:
 Density Functional     Method          .... DFT(GTOs)
 Exchange Functional    Exchange        .... B88
   X-Alpha parameter    XAlpha          ....  0.666667
   Becke's b parameter  XBeta           ....  0.004200
 Correlation Functional Correlation     .... LYP
 LDA part of GGA corr.  LDAOpt          .... VWN-5
 Gradients option       PostSCFGGA      .... off
 Hybrid DFT is turned on
   Fraction HF Exchange ScalHFX         ....  0.200000
   Scaling of DF-GGA-X  ScalDFX         ....  0.720000
   Scaling of DF-GGA-C  ScalDFC         ....  0.810000
   Scaling of DF-LDA-C  ScalLDAC        ....  1.000000
   Perturbative correction              ....  0.000000
   Density functional embedding theory  .... OFF
   NL short-range parameter             ....  4.800000


General Settings:
 Integral files         IntName         .... orca0
 Hartree-Fock type      HFTyp           .... UHF
 Total Charge           Charge          ....    0
 Multiplicity           Mult            ....    1
 Number of Electrons    NEL             ....   82
 Basis Dimension        Dim             ....  184
 Nuclear Repulsion      ENuc            ....    547.6166722616 Eh

Convergence Acceleration:
 DIIS                   CNVDIIS         .... on
   Start iteration      DIISMaxIt       ....    12
   Startup error        DIISStart       ....  0.200000
   # of expansion vecs  DIISMaxEq       ....     5
   Bias factor          DIISBfac        ....   1.050
   Max. coefficient     DIISMaxC        ....  10.000
 Newton-Raphson         CNVNR           .... off
 SOSCF                  CNVSOSCF        .... off
 Level Shifting         CNVShift        .... on
   Level shift para.    LevelShift      ....    0.2500
   Turn off err/grad.   ShiftErr        ....    0.0010
 Zerner damping         CNVZerner       .... off
 Static damping         CNVDamp         .... on
   Fraction old density DampFac         ....    0.7000
   Max. Damping (<1)    DampMax         ....    0.9800
   Min. Damping (>=0)   DampMin         ....    0.0000
   Turn off err/grad.   DampErr         ....    0.1000
 Fernandez-Rico         CNVRico         .... off

SCF Procedure:
 Maximum # iterations   MaxIter         ....   500
 SCF integral mode      SCFMode         .... Direct
   Integral package                     .... LIBINT
 Reset frequency        DirectResetFreq ....    20
 Integral Threshold     Thresh          ....  1.000e-12 Eh
 Primitive CutOff       TCut            ....  1.000e-14 Eh

Convergence Tolerance:
 Convergence Check Mode ConvCheckMode   .... Total+1el-Energy
 Convergence forced     ConvForced      .... 0
 Energy Change          TolE            ....  1.000e-09 Eh
 1-El. energy change                    ....  1.000e-06 Eh
 DIIS Error             TolErr          ....  1.000e-08


Diagonalization of the overlap matrix:
Smallest eigenvalue                        ... 1.239e-03
Time for diagonalization                   ...    0.004 sec
Threshold for overlap eigenvalues          ... 1.000e-08
Number of eigenvalues below threshold      ... 0
Time for construction of square roots      ...    5.036 sec
Total time needed                          ...    5.040 sec

-------------------
DFT GRID GENERATION
-------------------

General Integration Accuracy     IntAcc      ...  4.340
Radial Grid Type                 RadialGrid  ... Gauss-Chebyshev
Angular Grid (max. acc.)         AngularGrid ... Lebedev-110
Angular grid pruning method      GridPruning ... 3 (G Style)
Weight generation scheme         WeightScheme... Becke
Basis function cutoff            BFCut       ...    1.0000e-12
Integration weight cutoff        WCut        ...    1.0000e-14
Grids for H and He will be reduced by one unit

# of grid points (after initial pruning)     ...  34028 (   0.0 sec)
# of grid points (after weights+screening)   ...  30574 (   0.2 sec)
nearest neighbour list constructed           ...    0.0 sec
Grid point re-assignment to atoms done       ...    0.0 sec
Grid point division into batches done        ...    0.0 sec
Reduced shell lists constructed in    0.2 sec

Total number of grid points                  ...    30574
Total number of batches                      ...      492
Average number of points per batch           ...       62
Average number of grid points per atom       ...      955
Average number of shells per batch           ...    67.81 (65.20%)
Average number of basis functions per batch  ...   116.09 (63.09%)
Average number of large shells per batch     ...    50.96 (75.15%)
Average number of large basis fcns per batch ...    87.83 (75.65%)
Maximum spatial batch extension              ...  19.74, 25.60, 22.83 au
Average spatial batch extension              ...   3.11,  3.49,  3.45 au

Time for grid setup =    4.110 sec

------------------------------
INITIAL GUESS: MODEL POTENTIAL
------------------------------
Loading Hartree-Fock densities                     ... done
Calculating cut-offs                               ... done
Setting up the integral package                    ... done
Initializing the effective Hamiltonian             ... done
Starting the Coulomb interaction                   ... done (   0.2 sec)
Reading the grid                                   ... done
Mapping shells                                     ... done
Starting the XC term evaluation                    ... done (   0.4 sec)
  promolecular density results
     # of electrons  =     81.992892901
     EX              =    -57.978663785
     EC              =     -2.610827932
     EX+EC           =    -60.589491717
Transforming the Hamiltonian                       ... done (   0.0 sec)
Diagonalizing the Hamiltonian                      ... done (   0.0 sec)
Back transforming the eigenvectors                 ... done (   0.0 sec)
Now organizing SCF variables                       ... done
                      ------------------
                      INITIAL GUESS DONE (   5.0 sec)
                      ------------------
--------------
SCF ITERATIONS
--------------
ITER       Energy         Delta-E        Max-DP      RMS-DP      [F,P]     Damp
               ***  Starting incremental Fock matrix formation  ***
  0   -393.2586858107   0.000000000000 0.04176924  0.00142888  0.1729149 0.7000
  1   -393.4418044907  -0.183118679918 0.02563739  0.00101398  0.0893214 0.7000
                               ***Turning on DIIS***
  2   -393.5142580771  -0.072453586480 0.03501348  0.00165034  0.0326783 0.0000
  3   -393.6121087645  -0.097850687347 0.01724792  0.00068961  0.0498314 0.0000
  4   -393.6448488073  -0.032740042788 0.00357043  0.00020873  0.0108726 0.0000
  5   -393.6464945011  -0.001645693792 0.00128392  0.00007168  0.0020326 0.0000
  6   -393.6465896989  -0.000095197843 0.00059537  0.00003654  0.0007083 0.0000
  7   -393.6465974052  -0.000007706259 0.00022609  0.00000430  0.0003884 0.0000
  8   -393.6465981110  -0.000000705857 0.00004753  0.00000128  0.0000845 0.0000
  9   -393.6465981488  -0.000000037753 0.00000967  0.00000038  0.0000153 0.0000
 10   -393.6465981506  -0.000000001803 0.00000566  0.00000014  0.0000085 0.0000
 11   -393.6465981510  -0.000000000466 0.00000163  0.00000005  0.0000029 0.0000
 12   -393.6465981511  -0.000000000015 0.00000025  0.00000001  0.0000004 0.0000
 13   -393.6465981510   0.000000000033 0.00000011  0.00000000  0.0000002 0.0000
 14   -393.6465981511  -0.000000000041 0.00000004  0.00000000  0.0000001 0.0000
                 **** Energy Check signals convergence ****

 Fermi smearing  (ALPHA): E(HOMO(Eh)) = -0.281160 MUE = -0.111545 gap=   9.231 eV
 Fermi smearing   (BETA): E(HOMO(Eh)) = -0.281160 MUE = -0.111545 gap=   9.231 eV

N_FOD(alpha) =  0.000000
 N_FOD(beta) =  0.000000
       N_FOD =  0.000000

               *****************************************************
               *                     SUCCESS                       *
               *           SCF CONVERGED AFTER  15 CYCLES          *
               *****************************************************

Setting up the final grid:

General Integration Accuracy     IntAcc      ...  4.670
Radial Grid Type                 RadialGrid  ... Gauss-Chebyshev
Angular Grid (max. acc.)         AngularGrid ... Lebedev-302
Angular grid pruning method      GridPruning ... 3 (G Style)
Weight generation scheme         WeightScheme... Becke
Basis function cutoff            BFCut       ...    1.0000e-12
Integration weight cutoff        WCut        ...    1.0000e-14
Grids for H and He will be reduced by one unit

# of grid points (after initial pruning)     ... 136788 (   0.1 sec)
# of grid points (after weights+screening)   ... 120506 (   0.7 sec)
nearest neighbour list constructed           ...    0.0 sec
Grid point re-assignment to atoms done       ...    0.0 sec
Grid point division into batches done        ...    0.3 sec
Reduced shell lists constructed in    1.0 sec

Total number of grid points                  ...   120506
Total number of batches                      ...     1900
Average number of points per batch           ...       63
Average number of grid points per atom       ...     3766
Average number of shells per batch           ...    63.02 (60.60%)
Average number of basis functions per batch  ...   107.47 (58.41%)
Average number of large shells per batch     ...    46.51 (73.80%)
Average number of large basis fcns per batch ...    79.78 (74.24%)
Maximum spatial batch extension              ...  20.02, 20.22, 20.83 au
Average spatial batch extension              ...   2.10,  2.27,  2.26 au

Final grid set up in    2.4 sec
Final integration                            ... done (  16.5 sec)
Change in XC energy                          ...     0.000082012
Integrated number of electrons               ...    82.000298455
Previous integrated no of electrons          ...    82.001592773

----------------
TOTAL SCF ENERGY
----------------

Total Energy       :         -393.64651614 Eh          -10711.66627 eV

Components:
Nuclear Repulsion  :          547.61667226 Eh           14901.40723 eV
Electronic Energy  :         -941.26318840 Eh          -25613.07350 eV
One Electron Energy:        -1614.18336568 Eh          -43924.16244 eV
Two Electron Energy:          672.92017728 Eh           18311.08894 eV

Virial components:
Potential Energy   :         -783.35422171 Eh          -21316.15206 eV
Kinetic Energy     :          389.70770557 Eh           10604.48579 eV
Virial Ratio       :            2.01010709


DFT components:
N(Alpha)           :       41.000149227558 electrons
N(Beta)            :       41.000149227558 electrons
N(Total)           :       82.000298455116 electrons
E(X)               :      -47.183763624075 Eh       
E(C)               :       -3.090425226666 Eh       
E(XC)              :      -50.274188850741 Eh       
DFET-embed. en.    :        0.000000000000 Eh       

---------------
SCF CONVERGENCE
---------------

  Last Energy change         ...   -5.5479e-11  Tolerance :   1.0000e-09
  Last MAX-Density change    ...    5.3666e-09  Tolerance :   1.0000e-08
  Last RMS-Density change    ...    2.0178e-10  Tolerance :   1.0000e-09
  Last DIIS Error            ...    1.0825e-08  Tolerance :   1.0000e-08

             **** THE GBW FILE WAS UPDATED (orca0.gbw) ****
             **** DENSITY FILE WAS UPDATED (orca0.scfp) ****
             **** ENERGY FILE WAS UPDATED (orca0.en.tmp) ****
             **** THE GBW FILE WAS UPDATED (orca0.gbw) ****
             **** DENSITY FILE WAS UPDATED (orca0.scfp) ****
----------------
ORBITAL ENERGIES
----------------
                 SPIN UP ORBITALS
  NO   OCC          E(Eh)            E(eV) 
   0   1.0000     -10.167042      -276.6593 
   1   1.0000     -10.166105      -276.6338 
   2   1.0000     -10.164821      -276.5988 
   3   1.0000     -10.164603      -276.5929 
   4   1.0000     -10.164515      -276.5905 
   5   1.0000     -10.164421      -276.5880 
   6   1.0000     -10.163696      -276.5682 
   7   1.0000     -10.163534      -276.5638 
   8   1.0000     -10.162880      -276.5460 
   9   1.0000     -10.162206      -276.5277 
  10   1.0000      -0.816206       -22.2101 
  11   1.0000      -0.793086       -21.5810 
  12   1.0000      -0.761795       -20.7295 
  13   1.0000      -0.723767       -19.6947 
  14   1.0000      -0.673452       -18.3256 
  15   1.0000      -0.635856       -17.3025 
  16   1.0000      -0.594098       -16.1662 
  17   1.0000      -0.569860       -15.5067 
  18   1.0000      -0.563786       -15.3414 
  19   1.0000      -0.549929       -14.9643 
  20   1.0000      -0.475078       -12.9275 
  21   1.0000      -0.467877       -12.7316 
  22   1.0000      -0.449916       -12.2428 
  23   1.0000      -0.438719       -11.9381 
  24   1.0000      -0.435472       -11.8498 
  25   1.0000      -0.427735       -11.6393 
  26   1.0000      -0.404241       -11.0000 
  27   1.0000      -0.392556       -10.6820 
  28   1.0000      -0.382241       -10.4013 
  29   1.0000      -0.375671       -10.2225 
  30   1.0000      -0.363551        -9.8927 
  31   1.0000      -0.351394        -9.5619 
  32   1.0000      -0.345499        -9.4015 
  33   1.0000      -0.340095        -9.2545 
  34   1.0000      -0.328536        -8.9399 
  35   1.0000      -0.326975        -8.8974 
  36   1.0000      -0.317888        -8.6502 
  37   1.0000      -0.307083        -8.3562 
  38   1.0000      -0.303079        -8.2472 
  39   1.0000      -0.301578        -8.2064 
  40   1.0000      -0.281160        -7.6508 
  41   0.0000       0.058070         1.5802 
  42   0.0000       0.062641         1.7046 
  43   0.0000       0.066740         1.8161 
  44   0.0000       0.068691         1.8692 
  45   0.0000       0.074950         2.0395 
  46   0.0000       0.082591         2.2474 
  47   0.0000       0.092046         2.5047 
  48   0.0000       0.104894         2.8543 
  49   0.0000       0.113574         3.0905 
  50   0.0000       0.114705         3.1213 
  51   0.0000       0.127685         3.4745 
  52   0.0000       0.132722         3.6115 
  53   0.0000       0.134873         3.6701 
  54   0.0000       0.151177         4.1137 
  55   0.0000       0.153735         4.1833 
  56   0.0000       0.164592         4.4788 
  57   0.0000       0.168136         4.5752 
  58   0.0000       0.173920         4.7326 
  59   0.0000       0.185786         5.0555 
  60   0.0000       0.194708         5.2983 
  61   0.0000       0.200540         5.4570 
  62   0.0000       0.214439         5.8352 
  63   0.0000       0.227139         6.1808 
  64   0.0000       0.244985         6.6664 
  65   0.0000       0.250130         6.8064 
  66   0.0000       0.265593         7.2272 
  67   0.0000       0.277485         7.5508 
  68   0.0000       0.282643         7.6911 
  69   0.0000       0.294518         8.0142 
  70   0.0000       0.301493         8.2040 
  71   0.0000       0.303155         8.2493 
  72   0.0000       0.410363        11.1665 
  73   0.0000       0.412962        11.2373 
  74   0.0000       0.437341        11.9006 
  75   0.0000       0.442658        12.0453 
  76   0.0000       0.451789        12.2938 
  77   0.0000       0.462055        12.5732 
  78   0.0000       0.469016        12.7626 
  79   0.0000       0.497149        13.5281 
  80   0.0000       0.510325        13.8866 
  81   0.0000       0.522448        14.2165 
  82   0.0000       0.523786        14.2529 
  83   0.0000       0.536227        14.5915 
  84   0.0000       0.567344        15.4382 
  85   0.0000       0.594379        16.1739 
  86   0.0000       0.608076        16.5466 
  87   0.0000       0.619501        16.8575 
  88   0.0000       0.627045        17.0628 
  89   0.0000       0.636956        17.3325 
  90   0.0000       0.641240        17.4490 
  91   0.0000       0.646752        17.5990 
  92   0.0000       0.651054        17.7161 
  93   0.0000       0.657656        17.8957 
  94   0.0000       0.663497        18.0547 
  95   0.0000       0.669700        18.2235 
  96   0.0000       0.676521        18.4091 
  97   0.0000       0.681996        18.5580 
  98   0.0000       0.685489        18.6531 
  99   0.0000       0.691365        18.8130 
 100   0.0000       0.697516        18.9804 
 101   0.0000       0.701358        19.0849 
 102   0.0000       0.705339        19.1932 
 103   0.0000       0.709991        19.3198 
 104   0.0000       0.712489        19.3878 
 105   0.0000       0.713944        19.4274 
 106   0.0000       0.715302        19.4644 
 107   0.0000       0.721313        19.6279 
 108   0.0000       0.727973        19.8091 
 109   0.0000       0.737571        20.0703 
 110   0.0000       0.741017        20.1641 
 111   0.0000       0.745577        20.2882 
 112   0.0000       0.749375        20.3915 
 113   0.0000       0.758897        20.6506 
 114   0.0000       0.760639        20.6980 
 115   0.0000       0.763399        20.7731 
 116   0.0000       0.771895        21.0043 
 117   0.0000       0.776439        21.1280 
 118   0.0000       0.799959        21.7680 
 119   0.0000       0.809759        22.0347 
 120   0.0000       0.822967        22.3941 
 121   0.0000       0.839186        22.8354 
 122   0.0000       0.856795        23.3146 
 123   0.0000       0.911618        24.8064 
 124   0.0000       0.931899        25.3583 
 125   0.0000       0.965657        26.2769 
 126   0.0000       0.978360        26.6225 
 127   0.0000       0.992016        26.9941 
 128   0.0000       1.058295        28.7977 
 129   0.0000       1.113718        30.3058 
 130   0.0000       1.166946        31.7542 
 131   0.0000       1.184993        32.2453 
 132   0.0000       1.218371        33.1535 
 133   0.0000       1.236550        33.6482 
 134   0.0000       1.367942        37.2236 
 135   0.0000       1.379253        37.5314 
 136   0.0000       1.509468        41.0747 
 137   0.0000       1.561707        42.4962 
 138   0.0000       1.613833        43.9146 
 139   0.0000       1.686280        45.8860 
 140   0.0000       1.708776        46.4982 
 141   0.0000       1.741345        47.3844 
 142   0.0000       1.783614        48.5346 
 143   0.0000       1.814802        49.3833 
 144   0.0000       1.831152        49.8282 
 145   0.0000       1.843197        50.1559 
 146   0.0000       1.870066        50.8871 
 147   0.0000       1.882381        51.2222 
 148   0.0000       1.898175        51.6520 
 149   0.0000       1.911249        52.0077 
 150   0.0000       1.918151        52.1955 
 151   0.0000       1.955135        53.2019 
 152   0.0000       1.977839        53.8197 
 153   0.0000       1.982292        53.9409 
 154   0.0000       2.010817        54.7171 
 155   0.0000       2.020108        54.9699 
 156   0.0000       2.039053        55.4854 
 157   0.0000       2.047917        55.7267 
 158   0.0000       2.078972        56.5717 
 159   0.0000       2.093495        56.9669 
 160   0.0000       2.107348        57.3438 
 161   0.0000       2.134984        58.0959 
 162   0.0000       2.175337        59.1939 
 163   0.0000       2.201402        59.9032 
 164   0.0000       2.217132        60.3312 
 165   0.0000       2.223033        60.4918 
 166   0.0000       2.256425        61.4004 
 167   0.0000       2.296514        62.4913 
 168   0.0000       2.325629        63.2836 
 169   0.0000       2.337591        63.6091 
 170   0.0000       2.371898        64.5426 
 171   0.0000       2.384067        64.8738 
 172   0.0000       2.409927        65.5774 
 173   0.0000       2.438427        66.3530 
 174   0.0000       2.486712        67.6669 
 175   0.0000       2.500935        68.0539 
 176   0.0000       2.552499        69.4570 
 177   0.0000       2.588916        70.4480 
 178   0.0000       2.623461        71.3880 
 179   0.0000       2.672505        72.7225 
 180   0.0000       2.707141        73.6651 
 181   0.0000       2.730725        74.3068 
 182   0.0000       2.762155        75.1621 
 183   0.0000       2.843710        77.3813 

                 SPIN DOWN ORBITALS
  NO   OCC          E(Eh)            E(eV) 
   0   1.0000     -10.167042      -276.6593 
   1   1.0000     -10.166105      -276.6338 
   2   1.0000     -10.164821      -276.5988 
   3   1.0000     -10.164603      -276.5929 
   4   1.0000     -10.164515      -276.5905 
   5   1.0000     -10.164421      -276.5880 
   6   1.0000     -10.163696      -276.5682 
   7   1.0000     -10.163534      -276.5638 
   8   1.0000     -10.162880      -276.5460 
   9   1.0000     -10.162206      -276.5277 
  10   1.0000      -0.816206       -22.2101 
  11   1.0000      -0.793086       -21.5810 
  12   1.0000      -0.761795       -20.7295 
  13   1.0000      -0.723767       -19.6947 
  14   1.0000      -0.673452       -18.3256 
  15   1.0000      -0.635856       -17.3025 
  16   1.0000      -0.594098       -16.1662 
  17   1.0000      -0.569860       -15.5067 
  18   1.0000      -0.563786       -15.3414 
  19   1.0000      -0.549929       -14.9643 
  20   1.0000      -0.475078       -12.9275 
  21   1.0000      -0.467877       -12.7316 
  22   1.0000      -0.449916       -12.2428 
  23   1.0000      -0.438719       -11.9381 
  24   1.0000      -0.435472       -11.8498 
  25   1.0000      -0.427735       -11.6393 
  26   1.0000      -0.404241       -11.0000 
  27   1.0000      -0.392556       -10.6820 
  28   1.0000      -0.382241       -10.4013 
  29   1.0000      -0.375671       -10.2225 
  30   1.0000      -0.363551        -9.8927 
  31   1.0000      -0.351394        -9.5619 
  32   1.0000      -0.345499        -9.4015 
  33   1.0000      -0.340095        -9.2545 
  34   1.0000      -0.328536        -8.9399 
  35   1.0000      -0.326975        -8.8974 
  36   1.0000      -0.317888        -8.6502 
  37   1.0000      -0.307083        -8.3562 
  38   1.0000      -0.303079        -8.2472 
  39   1.0000      -0.301578        -8.2064 
  40   1.0000      -0.281160        -7.6508 
  41   0.0000       0.058070         1.5802 
  42   0.0000       0.062641         1.7046 
  43   0.0000       0.066740         1.8161 
  44   0.0000       0.068691         1.8692 
  45   0.0000       0.074950         2.0395 
  46   0.0000       0.082591         2.2474 
  47   0.0000       0.092046         2.5047 
  48   0.0000       0.104894         2.8543 
  49   0.0000       0.113574         3.0905 
  50   0.0000       0.114705         3.1213 
  51   0.0000       0.127685         3.4745 
  52   0.0000       0.132722         3.6115 
  53   0.0000       0.134873         3.6701 
  54   0.0000       0.151177         4.1137 
  55   0.0000       0.153735         4.1833 
  56   0.0000       0.164592         4.4788 
  57   0.0000       0.168136         4.5752 
  58   0.0000       0.173920         4.7326 
  59   0.0000       0.185786         5.0555 
  60   0.0000       0.194708         5.2983 
  61   0.0000       0.200540         5.4570 
  62   0.0000       0.214439         5.8352 
  63   0.0000       0.227139         6.1808 
  64   0.0000       0.244985         6.6664 
  65   0.0000       0.250130         6.8064 
  66   0.0000       0.265593         7.2272 
  67   0.0000       0.277485         7.5508 
  68   0.0000       0.282643         7.6911 
  69   0.0000       0.294518         8.0142 
  70   0.0000       0.301493         8.2040 
  71   0.0000       0.303155         8.2493 
  72   0.0000       0.410363        11.1665 
  73   0.0000       0.412962        11.2373 
  74   0.0000       0.437341        11.9006 
  75   0.0000       0.442658        12.0453 
  76   0.0000       0.451789        12.2938 
  77   0.0000       0.462055        12.5732 
  78   0.0000       0.469016        12.7626 
  79   0.0000       0.497149        13.5281 
  80   0.0000       0.510325        13.8866 
  81   0.0000       0.522448        14.2165 
  82   0.0000       0.523786        14.2529 
  83   0.0000       0.536227        14.5915 
  84   0.0000       0.567344        15.4382 
  85   0.0000       0.594379        16.1739 
  86   0.0000       0.608076        16.5466 
  87   0.0000       0.619501        16.8575 
  88   0.0000       0.627045        17.0628 
  89   0.0000       0.636956        17.3325 
  90   0.0000       0.641240        17.4490 
  91   0.0000       0.646752        17.5990 
  92   0.0000       0.651054        17.7161 
  93   0.0000       0.657656        17.8957 
  94   0.0000       0.663497        18.0547 
  95   0.0000       0.669700        18.2235 
  96   0.0000       0.676521        18.4091 
  97   0.0000       0.681996        18.5580 
  98   0.0000       0.685489        18.6531 
  99   0.0000       0.691365        18.8130 
 100   0.0000       0.697516        18.9804 
 101   0.0000       0.701358        19.0849 
 102   0.0000       0.705339        19.1932 
 103   0.0000       0.709991        19.3198 
 104   0.0000       0.712489        19.3878 
 105   0.0000       0.713944        19.4274 
 106   0.0000       0.715302        19.4644 
 107   0.0000       0.721313        19.6279 
 108   0.0000       0.727973        19.8091 
 109   0.0000       0.737571        20.0703 
 110   0.0000       0.741017        20.1641 
 111   0.0000       0.745577        20.2882 
 112   0.0000       0.749375        20.3915 
 113   0.0000       0.758897        20.6506 
 114   0.0000       0.760639        20.6980 
 115   0.0000       0.763399        20.7731 
 116   0.0000       0.771895        21.0043 
 117   0.0000       0.776439        21.1280 
 118   0.0000       0.799959        21.7680 
 119   0.0000       0.809759        22.0347 
 120   0.0000       0.822967        22.3941 
 121   0.0000       0.839186        22.8354 
 122   0.0000       0.856795        23.3146 
 123   0.0000       0.911618        24.8064 
 124   0.0000       0.931899        25.3583 
 125   0.0000       0.965657        26.2769 
 126   0.0000       0.978360        26.6225 
 127   0.0000       0.992016        26.9941 
 128   0.0000       1.058295        28.7977 
 129   0.0000       1.113718        30.3058 
 130   0.0000       1.166946        31.7542 
 131   0.0000       1.184993        32.2453 
 132   0.0000       1.218371        33.1535 
 133   0.0000       1.236550        33.6482 
 134   0.0000       1.367942        37.2236 
 135   0.0000       1.379253        37.5314 
 136   0.0000       1.509468        41.0747 
 137   0.0000       1.561707        42.4962 
 138   0.0000       1.613833        43.9146 
 139   0.0000       1.686280        45.8860 
 140   0.0000       1.708776        46.4982 
 141   0.0000       1.741345        47.3844 
 142   0.0000       1.783614        48.5346 
 143   0.0000       1.814802        49.3833 
 144   0.0000       1.831152        49.8282 
 145   0.0000       1.843197        50.1559 
 146   0.0000       1.870066        50.8871 
 147   0.0000       1.882381        51.2222 
 148   0.0000       1.898175        51.6520 
 149   0.0000       1.911249        52.0077 
 150   0.0000       1.918151        52.1955 
 151   0.0000       1.955135        53.2019 
 152   0.0000       1.977839        53.8197 
 153   0.0000       1.982292        53.9409 
 154   0.0000       2.010817        54.7171 
 155   0.0000       2.020108        54.9699 
 156   0.0000       2.039053        55.4854 
 157   0.0000       2.047917        55.7267 
 158   0.0000       2.078972        56.5717 
 159   0.0000       2.093495        56.9669 
 160   0.0000       2.107348        57.3438 
 161   0.0000       2.134984        58.0959 
 162   0.0000       2.175337        59.1939 
 163   0.0000       2.201402        59.9032 
 164   0.0000       2.217132        60.3312 
 165   0.0000       2.223033        60.4918 
 166   0.0000       2.256425        61.4004 
 167   0.0000       2.296514        62.4913 
 168   0.0000       2.325629        63.2836 
 169   0.0000       2.337591        63.6091 
 170   0.0000       2.371898        64.5426 
 171   0.0000       2.384067        64.8738 
 172   0.0000       2.409927        65.5774 
 173   0.0000       2.438427        66.3530 
 174   0.0000       2.486712        67.6669 
 175   0.0000       2.500935        68.0539 
 176   0.0000       2.552499        69.4570 
 177   0.0000       2.588916        70.4480 
 178   0.0000       2.623461        71.3880 
 179   0.0000       2.672505        72.7225 
 180   0.0000       2.707141        73.6651 
 181   0.0000       2.730725        74.3068 
 182   0.0000       2.762155        75.1621 
 183   0.0000       2.843710        77.3813 

                    ********************************
                    * MULLIKEN POPULATION ANALYSIS *
                    ********************************

------------------------------------------
FOD BASED MULLIKEN REDUCED ORBITAL CHARGES
------------------------------------------
  0 C s       :    -0.000000  s :    -0.000000
      pz      :     0.000000  p :     0.000000
      px      :     0.000000
      py      :     0.000000
      dz2     :     0.000000  d :     0.000000
      dxz     :     0.000000
      dyz     :     0.000000
      dx2y2   :     0.000000
      dxy     :     0.000000
  1 C s       :    -0.000000  s :    -0.000000
      pz      :     0.000000  p :     0.000000
      px      :     0.000000
      py      :     0.000000
      dz2     :     0.000000  d :     0.000000
      dxz     :     0.000000
      dyz     :     0.000000
      dx2y2   :     0.000000
      dxy     :     0.000000
  2 C s       :    -0.000000  s :    -0.000000
      pz      :     0.000000  p :     0.000000
      px      :     0.000000
      py      :     0.000000
      dz2     :     0.000000  d :     0.000000
      dxz     :     0.000000
      dyz     :     0.000000
      dx2y2   :     0.000000
      dxy     :     0.000000
  3 C s       :    -0.000000  s :    -0.000000
      pz      :     0.000000  p :     0.000000
      px      :     0.000000
      py      :     0.000000
      dz2     :     0.000000  d :     0.000000
      dxz     :     0.000000
      dyz     :     0.000000
      dx2y2   :     0.000000
      dxy     :     0.000000
  4 C s       :    -0.000000  s :    -0.000000
      pz      :     0.000000  p :     0.000000
      px      :     0.000000
      py      :     0.000000
      dz2     :     0.000000  d :     0.000000
      dxz     :     0.000000
      dyz     :     0.000000
      dx2y2   :     0.000000
      dxy     :     0.000000
  5 C s       :    -0.000000  s :    -0.000000
      pz      :     0.000000  p :     0.000000
      px      :     0.000000
      py      :     0.000000
      dz2     :     0.000000  d :     0.000000
      dxz     :     0.000000
      dyz     :     0.000000
      dx2y2   :     0.000000
      dxy     :     0.000000
  6 C s       :    -0.000000  s :    -0.000000
      pz      :     0.000000  p :     0.000000
      px      :     0.000000
      py      :     0.000000
      dz2     :     0.000000  d :     0.000000
      dxz     :     0.000000
      dyz     :     0.000000
      dx2y2   :     0.000000
      dxy     :     0.000000
  7 C s       :    -0.000000  s :    -0.000000
      pz      :     0.000000  p :     0.000000
      px      :     0.000000
      py      :     0.000000
      dz2     :     0.000000  d :     0.000000
      dxz     :     0.000000
      dyz     :     0.000000
      dx2y2   :     0.000000
      dxy     :     0.000000
  8 C s       :    -0.000000  s :    -0.000000
      pz      :     0.000000  p :     0.000000
      px      :     0.000000
      py      :     0.000000
      dz2     :     0.000000  d :     0.000000
      dxz     :     0.000000
      dyz     :     0.000000
      dx2y2   :     0.000000
      dxy     :     0.000000
  9 C s       :    -0.000000  s :    -0.000000
      pz      :     0.000000  p :     0.000000
      px      :     0.000000
      py      :     0.000000
      dz2     :     0.000000  d :     0.000000
      dxz     :     0.000000
      dyz     :     0.000000
      dx2y2   :     0.000000
      dxy     :     0.000000
 10 H s       :     0.000000  s :     0.000000
 11 H s       :     0.000000  s :     0.000000
 12 H s       :     0.000000  s :     0.000000
 13 H s       :     0.000000  s :     0.000000
 14 H s       :     0.000000  s :     0.000000
 15 H s       :     0.000000  s :     0.000000
 16 H s       :     0.000000  s :     0.000000
 17 H s       :     0.000000  s :     0.000000
 18 H s       :     0.000000  s :     0.000000
 19 H s       :     0.000000  s :     0.000000
 20 H s       :     0.000000  s :     0.000000
 21 H s       :     0.000000  s :     0.000000
 22 H s       :     0.000000  s :     0.000000
 23 H s       :     0.000000  s :     0.000000
 24 H s       :     0.000000  s :     0.000000
 25 H s       :     0.000000  s :     0.000000
 26 H s       :     0.000000  s :     0.000000
 27 H s       :     0.000000  s :     0.000000
 28 H s       :     0.000000  s :     0.000000
 29 H s       :     0.000000  s :     0.000000
 30 H s       :     0.000000  s :     0.000000
 31 H s       :     0.000000  s :     0.000000


                     *******************************
                     * LOEWDIN POPULATION ANALYSIS *
                     *******************************

-------------------------------------------
LOEWDIN ATOMIC CHARGES AND SPIN POPULATIONS
-------------------------------------------
   0 C :   -0.318830    0.000000
   1 C :   -0.222370    0.000000
   2 C :   -0.211146    0.000000
   3 C :   -0.207950    0.000000
   4 C :   -0.213522    0.000000
   5 C :   -0.209989    0.000000
   6 C :   -0.206250    0.000000
   7 C :   -0.214552    0.000000
   8 C :   -0.220146    0.000000
   9 C :   -0.315517    0.000000
  10 H :    0.111646    0.000000
  11 H :    0.109951    0.000000
  12 H :    0.105115    0.000000
  13 H :    0.106384    0.000000
  14 H :    0.106081    0.000000
  15 H :    0.102787    0.000000
  16 H :    0.107530    0.000000
  17 H :    0.108060    0.000000
  18 H :    0.104592    0.000000
  19 H :    0.109522    0.000000
  20 H :    0.105860    0.000000
  21 H :    0.103222    0.000000
  22 H :    0.104874    0.000000
  23 H :    0.101474    0.000000
  24 H :    0.100509    0.000000
  25 H :    0.110258    0.000000
  26 H :    0.109990    0.000000
  27 H :    0.103076    0.000000
  28 H :    0.105478    0.000000
  29 H :    0.107874    0.000000
  30 H :    0.109311    0.000000
  31 H :    0.106679    0.000000

----------------------------------------------------
LOEWDIN REDUCED ORBITAL CHARGES AND SPIN POPULATIONS
----------------------------------------------------
CHARGE
  0 C s       :     2.957377  s :     2.957377
      pz      :     1.110816  p :     3.287486
      px      :     1.093364
      py      :     1.083306
      dz2     :     0.012444  d :     0.073967
      dxz     :     0.022583
      dyz     :     0.007603
      dx2y2   :     0.011649
      dxy     :     0.019688
  1 C s       :     2.913010  s :     2.913010
      pz      :     1.085739  p :     3.219605
      px      :     1.056539
      py      :     1.077326
      dz2     :     0.012855  d :     0.089755
      dxz     :     0.011782
      dyz     :     0.027098
      dx2y2   :     0.014938
      dxy     :     0.023082
  2 C s       :     2.917005  s :     2.917005
      pz      :     1.074376  p :     3.202310
      px      :     1.050219
      py      :     1.077715
      dz2     :     0.014738  d :     0.091832
      dxz     :     0.023850
      dyz     :     0.016298
      dx2y2   :     0.020925
      dxy     :     0.016021
  3 C s       :     2.906102  s :     2.906102
      pz      :     1.074736  p :     3.207104
      px      :     1.054074
      py      :     1.078294
      dz2     :     0.013751  d :     0.094744
      dxz     :     0.023571
      dyz     :     0.019861
      dx2y2   :     0.025616
      dxy     :     0.011945
  4 C s       :     2.900198  s :     2.900198
      pz      :     1.079561  p :     3.216389
      px      :     1.066313
      py      :     1.070514
      dz2     :     0.018154  d :     0.096935
      dxz     :     0.015713
      dyz     :     0.018425
      dx2y2   :     0.023441
      dxy     :     0.021202
  5 C s       :     2.904749  s :     2.904749
      pz      :     1.085426  p :     3.210512
      px      :     1.058603
      py      :     1.066484
      dz2     :     0.017417  d :     0.094728
      dxz     :     0.013655
      dyz     :     0.020868
      dx2y2   :     0.022691
      dxy     :     0.020098
  6 C s       :     2.911248  s :     2.911248
      pz      :     1.067482  p :     3.201104
      px      :     1.049211
      py      :     1.084411
      dz2     :     0.020885  d :     0.093898
      dxz     :     0.017094
      dyz     :     0.018635
      dx2y2   :     0.021277
      dxy     :     0.016007
  7 C s       :     2.904050  s :     2.904050
      pz      :     1.082388  p :     3.218287
      px      :     1.065123
      py      :     1.070776
      dz2     :     0.008565  d :     0.092214
      dxz     :     0.024446
      dyz     :     0.025464
      dx2y2   :     0.009310
      dxy     :     0.024428
  8 C s       :     2.907736  s :     2.907736
      pz      :     1.082712  p :     3.218959
      px      :     1.060896
      py      :     1.075351
      dz2     :     0.023207  d :     0.093450
      dxz     :     0.013541
      dyz     :     0.013613
      dx2y2   :     0.025345
      dxy     :     0.017744
  9 C s       :     2.958169  s :     2.958169
      pz      :     1.110141  p :     3.282841
      px      :     1.073861
      py      :     1.098840
      dz2     :     0.013981  d :     0.074506
      dxz     :     0.019111
      dyz     :     0.008602
      dx2y2   :     0.021441
      dxy     :     0.011371
 10 H s       :     0.888354  s :     0.888354
 11 H s       :     0.890049  s :     0.890049
 12 H s       :     0.894885  s :     0.894885
 13 H s       :     0.893616  s :     0.893616
 14 H s       :     0.893919  s :     0.893919
 15 H s       :     0.897213  s :     0.897213
 16 H s       :     0.892470  s :     0.892470
 17 H s       :     0.891940  s :     0.891940
 18 H s       :     0.895408  s :     0.895408
 19 H s       :     0.890478  s :     0.890478
 20 H s       :     0.894140  s :     0.894140
 21 H s       :     0.896778  s :     0.896778
 22 H s       :     0.895126  s :     0.895126
 23 H s       :     0.898526  s :     0.898526
 24 H s       :     0.899491  s :     0.899491
 25 H s       :     0.889742  s :     0.889742
 26 H s       :     0.890010  s :     0.890010
 27 H s       :     0.896924  s :     0.896924
 28 H s       :     0.894522  s :     0.894522
 29 H s       :     0.892126  s :     0.892126
 30 H s       :     0.890689  s :     0.890689
 31 H s       :     0.893321  s :     0.893321

SPIN
  0 C s       :     0.000000  s :     0.000000
      pz      :     0.000000  p :     0.000000
      px      :     0.000000
      py      :     0.000000
      dz2     :     0.000000  d :     0.000000
      dxz     :     0.000000
      dyz     :     0.000000
      dx2y2   :     0.000000
      dxy     :     0.000000
  1 C s       :     0.000000  s :     0.000000
      pz      :     0.000000  p :     0.000000
      px      :     0.000000
      py      :     0.000000
      dz2     :     0.000000  d :     0.000000
      dxz     :     0.000000
      dyz     :     0.000000
      dx2y2   :     0.000000
      dxy     :     0.000000
  2 C s       :     0.000000  s :     0.000000
      pz      :     0.000000  p :     0.000000
      px      :     0.000000
      py      :     0.000000
      dz2     :     0.000000  d :     0.000000
      dxz     :     0.000000
      dyz     :     0.000000
      dx2y2   :     0.000000
      dxy     :     0.000000
  3 C s       :     0.000000  s :     0.000000
      pz      :     0.000000  p :     0.000000
      px      :     0.000000
      py      :     0.000000
      dz2     :     0.000000  d :     0.000000
      dxz     :     0.000000
      dyz     :     0.000000
      dx2y2   :     0.000000
      dxy     :     0.000000
  4 C s       :     0.000000  s :     0.000000
      pz      :     0.000000  p :     0.000000
      px      :     0.000000
      py      :     0.000000
      dz2     :     0.000000  d :     0.000000
      dxz     :     0.000000
      dyz     :     0.000000
      dx2y2   :     0.000000
      dxy     :     0.000000
  5 C s       :     0.000000  s :     0.000000
      pz      :     0.000000  p :     0.000000
      px      :     0.000000
      py      :     0.000000
      dz2     :     0.000000  d :     0.000000
      dxz     :     0.000000
      dyz     :     0.000000
      dx2y2   :     0.000000
      dxy     :     0.000000
  6 C s       :     0.000000  s :     0.000000
      pz      :     0.000000  p :     0.000000
      px      :     0.000000
      py      :     0.000000
      dz2     :     0.000000  d :     0.000000
      dxz     :     0.000000
      dyz     :     0.000000
      dx2y2   :     0.000000
      dxy     :     0.000000
  7 C s       :     0.000000  s :     0.000000
      pz      :     0.000000  p :     0.000000
      px      :     0.000000
      py      :     0.000000
      dz2     :     0.000000  d :     0.000000
      dxz     :     0.000000
      dyz     :     0.000000
      dx2y2   :     0.000000
      dxy     :     0.000000
  8 C s       :     0.000000  s :     0.000000
      pz      :     0.000000  p :     0.000000
      px      :     0.000000
      py      :     0.000000
      dz2     :     0.000000  d :     0.000000
      dxz     :     0.000000
      dyz     :     0.000000
      dx2y2   :     0.000000
      dxy     :     0.000000
  9 C s       :     0.000000  s :     0.000000
      pz      :     0.000000  p :     0.000000
      px      :     0.000000
      py      :     0.000000
      dz2     :     0.000000  d :     0.000000
      dxz     :     0.000000
      dyz     :     0.000000
      dx2y2   :     0.000000
      dxy     :     0.000000
 10 H s       :     0.000000  s :     0.000000
 11 H s       :     0.000000  s :     0.000000
 12 H s       :     0.000000  s :     0.000000
 13 H s       :     0.000000  s :     0.000000
 14 H s       :     0.000000  s :     0.000000
 15 H s       :     0.000000  s :     0.000000
 16 H s       :     0.000000  s :     0.000000
 17 H s       :     0.000000  s :     0.000000
 18 H s       :     0.000000  s :     0.000000
 19 H s       :     0.000000  s :     0.000000
 20 H s       :     0.000000  s :     0.000000
 21 H s       :     0.000000  s :     0.000000
 22 H s       :     0.000000  s :     0.000000
 23 H s       :     0.000000  s :     0.000000
 24 H s       :     0.000000  s :     0.000000
 25 H s       :     0.000000  s :     0.000000
 26 H s       :     0.000000  s :     0.000000
 27 H s       :     0.000000  s :     0.000000
 28 H s       :     0.000000  s :     0.000000
 29 H s       :     0.000000  s :     0.000000
 30 H s       :     0.000000  s :     0.000000
 31 H s       :     0.000000  s :     0.000000


                      *****************************
                      * MAYER POPULATION ANALYSIS *
                      *****************************

  NA   - Mulliken gross atomic population
  ZA   - Total nuclear charge
  QA   - Mulliken gross atomic charge
  VA   - Mayer's total valence
  BVA  - Mayer's bonded valence
  FA   - Mayer's free valence

  ATOM       NA         ZA         QA         VA         BVA        FA
  0 C      6.2825     6.0000    -0.2825     4.0212     4.0212    -0.0000
  1 C      6.1270     6.0000    -0.1270     4.0712     4.0712     0.0000
  2 C      6.1813     6.0000    -0.1813     4.1135     4.1135     0.0000
  3 C      6.1352     6.0000    -0.1352     4.1207     4.1207     0.0000
  4 C      6.1549     6.0000    -0.1549     4.0828     4.0828     0.0000
  5 C      6.1353     6.0000    -0.1353     4.0994     4.0994     0.0000
  6 C      6.1556     6.0000    -0.1556     4.0993     4.0993     0.0000
  7 C      6.1414     6.0000    -0.1414     4.0550     4.0550     0.0000
  8 C      6.1588     6.0000    -0.1588     4.1087     4.1087     0.0000
  9 C      6.2665     6.0000    -0.2665     4.0249     4.0249    -0.0000
 10 H      0.9062     1.0000     0.0938     0.9518     0.9518     0.0000
 11 H      0.9095     1.0000     0.0905     0.9538     0.9538     0.0000
 12 H      0.9076     1.0000     0.0924     0.9601     0.9601     0.0000
 13 H      0.9223     1.0000     0.0777     0.9582     0.9582     0.0000
 14 H      0.9213     1.0000     0.0787     0.9455     0.9455     0.0000
 15 H      0.9337     1.0000     0.0663     0.9565     0.9565     0.0000
 16 H      0.9169     1.0000     0.0831     0.9547     0.9547     0.0000
 17 H      0.9218     1.0000     0.0782     0.9589     0.9589     0.0000
 18 H      0.9365     1.0000     0.0635     0.9509     0.9509     0.0000
 19 H      0.9195     1.0000     0.0805     0.9616     0.9616     0.0000
 20 H      0.9243     1.0000     0.0757     0.9570     0.9570     0.0000
 21 H      0.9310     1.0000     0.0690     0.9562     0.9562     0.0000
 22 H      0.9308     1.0000     0.0692     0.9471     0.9471     0.0000
 23 H      0.9352     1.0000     0.0648     0.9470     0.9470     0.0000
 24 H      0.9244     1.0000     0.0756     0.9587     0.9587     0.0000
 25 H      0.9228     1.0000     0.0772     0.9561     0.9561     0.0000
 26 H      0.9153     1.0000     0.0847     0.9625     0.9625     0.0000
 27 H      0.9200     1.0000     0.0800     0.9565     0.9565     0.0000
 28 H      0.9325     1.0000     0.0675     0.9448     0.9448     0.0000
 29 H      0.9172     1.0000     0.0828     0.9522     0.9522     0.0000
 30 H      0.9064     1.0000     0.0936     0.9507     0.9507     0.0000
 31 H      0.9060     1.0000     0.0940     0.9577     0.9577     0.0000

  Mayer bond orders larger than 0.100000
B(  0-C ,  1-C ) :   1.1140 B(  0-C , 10-H ) :   0.9627 B(  0-C , 11-H ) :   0.9610 
[...]
      px      :     0.000000
      py      :     0.000000
      dz2     :     0.000000  d :     0.000000
      dxz     :     0.000000
      dyz     :     0.000000
      dx2y2   :     0.000000
      dxy     :     0.000000
  9 C s       :    -0.000000  s :    -0.000000
      pz      :     0.000000  p :     0.000000
      px      :     0.000000
      py      :     0.000000
      dz2     :     0.000000  d :     0.000000
      dxz     :     0.000000
      dyz     :     0.000000
      dx2y2   :     0.000000
      dxy     :     0.000000
 10 H s       :     0.000000  s :     0.000000
 11 H s       :     0.000000  s :     0.000000
 12 H s       :     0.000000  s :     0.000000
 13 H s       :     0.000000  s :     0.000000
 14 H s       :     0.000000  s :     0.000000
 15 H s       :     0.000000  s :     0.000000
 16 H s       :     0.000000  s :     0.000000
 17 H s       :     0.000000  s :     0.000000
 18 H s       :     0.000000  s :     0.000000
 19 H s       :     0.000000  s :     0.000000
 20 H s       :     0.000000  s :     0.000000
 21 H s       :     0.000000  s :     0.000000
 22 H s       :     0.000000  s :     0.000000
 23 H s       :     0.000000  s :     0.000000
 24 H s       :     0.000000  s :     0.000000
 25 H s       :     0.000000  s :     0.000000
 26 H s       :     0.000000  s :     0.000000
 27 H s       :     0.000000  s :     0.000000
 28 H s       :     0.000000  s :     0.000000
 29 H s       :     0.000000  s :     0.000000
 30 H s       :     0.000000  s :     0.000000
 31 H s       :     0.000000  s :     0.000000


                     *******************************
                     * LOEWDIN POPULATION ANALYSIS *
                     *******************************

-------------------------------------------
LOEWDIN ATOMIC CHARGES AND SPIN POPULATIONS
-------------------------------------------
   0 C :   -0.324354    0.000000
   1 C :   -0.214720    0.000000
   2 C :   -0.212264    0.000000
   3 C :   -0.210135    0.000000
   4 C :   -0.210794    0.000000
   5 C :   -0.211067    0.000000
   6 C :   -0.210377    0.000000
   7 C :   -0.213042    0.000000
   8 C :   -0.215899    0.000000
   9 C :   -0.324325    0.000000
  10 H :    0.108398    0.000000
  11 H :    0.111817    0.000000
  12 H :    0.110410    0.000000
  13 H :    0.103550    0.000000
  14 H :    0.106699    0.000000
  15 H :    0.105883    0.000000
  16 H :    0.104559    0.000000
  17 H :    0.105189    0.000000
  18 H :    0.104993    0.000000
  19 H :    0.104906    0.000000
  20 H :    0.105349    0.000000
  21 H :    0.106159    0.000000
  22 H :    0.105843    0.000000
  23 H :    0.106448    0.000000
  24 H :    0.103511    0.000000
  25 H :    0.103643    0.000000
  26 H :    0.106867    0.000000
  27 H :    0.105202    0.000000
  28 H :    0.107365    0.000000
  29 H :    0.112197    0.000000
  30 H :    0.108610    0.000000
  31 H :    0.109378    0.000000

----------------------------------------------------
LOEWDIN REDUCED ORBITAL CHARGES AND SPIN POPULATIONS
----------------------------------------------------
CHARGE
  0 C s       :     2.952545  s :     2.952545
      pz      :     1.107895  p :     3.298616
      px      :     1.096983
      py      :     1.093739
      dz2     :     0.025432  d :     0.073192
      dxz     :     0.005780
      dyz     :     0.009006
      dx2y2   :     0.023153
      dxy     :     0.009821
  1 C s       :     2.911068  s :     2.911068
      pz      :     1.081690  p :     3.212894
      px      :     1.053163
      py      :     1.078041
      dz2     :     0.025449  d :     0.090757
      dxz     :     0.013137
      dyz     :     0.010093
      dx2y2   :     0.024498
      dxy     :     0.017581
  2 C s       :     2.913437  s :     2.913437
      pz      :     1.066759  p :     3.208793
      px      :     1.051814
      py      :     1.090220
      dz2     :     0.018119  d :     0.090033
      dxz     :     0.018748
      dyz     :     0.019085
      dx2y2   :     0.020140
      dxy     :     0.013940
  3 C s       :     2.911795  s :     2.911795
      pz      :     1.069346  p :     3.208221
      px      :     1.051237
      py      :     1.087637
      dz2     :     0.018020  d :     0.090120
      dxz     :     0.017701
      dyz     :     0.020426
      dx2y2   :     0.018936
      dxy     :     0.015037
  4 C s       :     2.911866  s :     2.911866
      pz      :     1.086130  p :     3.208913
      px      :     1.049035
      py      :     1.073748
      dz2     :     0.018848  d :     0.090016
      dxz     :     0.011599
      dyz     :     0.018548
      dx2y2   :     0.021525
      dxy     :     0.019496
  5 C s       :     2.911729  s :     2.911729
      pz      :     1.091013  p :     3.209324
      px      :     1.048489
      py      :     1.069822
      dz2     :     0.021528  d :     0.090015
      dxz     :     0.010889
      dyz     :     0.016085
      dx2y2   :     0.020108
      dxy     :     0.021404
  6 C s       :     2.911804  s :     2.911804
      pz      :     1.081075  p :     3.208479
      px      :     1.045491
      py      :     1.081912
      dz2     :     0.026638  d :     0.090094
      dxz     :     0.013274
      dyz     :     0.009236
      dx2y2   :     0.023262
      dxy     :     0.017684
  7 C s       :     2.913616  s :     2.913616
      pz      :     1.080797  p :     3.209466
      px      :     1.046381
      py      :     1.082287
      dz2     :     0.026568  d :     0.089960
      dxz     :     0.013182
      dyz     :     0.009258
      dx2y2   :     0.023352
      dxy     :     0.017600
  8 C s       :     2.910997  s :     2.910997
      pz      :     1.089862  p :     3.214288
      px      :     1.054050
      py      :     1.070375
      dz2     :     0.021416  d :     0.090615
      dxz     :     0.010964
      dyz     :     0.016102
      dx2y2   :     0.020710
      dxy     :     0.021423
  9 C s       :     2.952493  s :     2.952493
      pz      :     1.111797  p :     3.298665
      px      :     1.099328
      py      :     1.087540
      dz2     :     0.018420  d :     0.073167
      dxz     :     0.004042
      dyz     :     0.018102
      dx2y2   :     0.021062
      dxy     :     0.011540
 10 H s       :     0.891602  s :     0.891602
 11 H s       :     0.888183  s :     0.888183
 12 H s       :     0.889590  s :     0.889590
 13 H s       :     0.896450  s :     0.896450
 14 H s       :     0.893301  s :     0.893301
 15 H s       :     0.894117  s :     0.894117
 16 H s       :     0.895441  s :     0.895441
 17 H s       :     0.894811  s :     0.894811
 18 H s       :     0.895007  s :     0.895007
 19 H s       :     0.895094  s :     0.895094
 20 H s       :     0.894651  s :     0.894651
 21 H s       :     0.893841  s :     0.893841
 22 H s       :     0.894157  s :     0.894157
 23 H s       :     0.893552  s :     0.893552
 24 H s       :     0.896489  s :     0.896489
 25 H s       :     0.896357  s :     0.896357
 26 H s       :     0.893133  s :     0.893133
 27 H s       :     0.894798  s :     0.894798
 28 H s       :     0.892635  s :     0.892635
 29 H s       :     0.887803  s :     0.887803
 30 H s       :     0.891390  s :     0.891390
 31 H s       :     0.890622  s :     0.890622

SPIN
  0 C s       :     0.000000  s :     0.000000
      pz      :     0.000000  p :     0.000000
      px      :     0.000000
      py      :     0.000000
      dz2     :     0.000000  d :     0.000000
      dxz     :     0.000000
      dyz     :     0.000000
      dx2y2   :     0.000000
      dxy     :     0.000000
  1 C s       :     0.000000  s :     0.000000
      pz      :     0.000000  p :     0.000000
      px      :     0.000000
      py      :     0.000000
      dz2     :     0.000000  d :     0.000000
      dxz     :     0.000000
      dyz     :     0.000000
      dx2y2   :     0.000000
      dxy     :     0.000000
  2 C s       :     0.000000  s :     0.000000
      pz      :     0.000000  p :     0.000000
      px      :     0.000000
      py      :     0.000000
      dz2     :     0.000000  d :     0.000000
      dxz     :     0.000000
      dyz     :     0.000000
      dx2y2   :     0.000000
      dxy     :     0.000000
  3 C s       :     0.000000  s :     0.000000
      pz      :     0.000000  p :     0.000000
      px      :     0.000000
      py      :     0.000000
      dz2     :     0.000000  d :     0.000000
      dxz     :     0.000000
      dyz     :     0.000000
      dx2y2   :     0.000000
      dxy     :     0.000000
  4 C s       :     0.000000  s :     0.000000
      pz      :     0.000000  p :     0.000000
      px      :     0.000000
      py      :     0.000000
      dz2     :     0.000000  d :     0.000000
      dxz     :     0.000000
      dyz     :     0.000000
      dx2y2   :     0.000000
      dxy     :     0.000000
  5 C s       :     0.000000  s :     0.000000
      pz      :     0.000000  p :     0.000000
      px      :     0.000000
      py      :     0.000000
      dz2     :     0.000000  d :     0.000000
      dxz     :     0.000000
      dyz     :     0.000000
      dx2y2   :     0.000000
      dxy     :     0.000000
  6 C s       :     0.000000  s :     0.000000
      pz      :     0.000000  p :     0.000000
      px      :     0.000000
      py      :     0.000000
      dz2     :     0.000000  d :     0.000000
      dxz     :     0.000000
      dyz     :     0.000000
      dx2y2   :     0.000000
      dxy     :     0.000000
  7 C s       :     0.000000  s :     0.000000
      pz      :     0.000000  p :     0.000000
      px      :     0.000000
      py      :     0.000000
      dz2     :     0.000000  d :     0.000000
      dxz     :     0.000000
      dyz     :     0.000000
      dx2y2   :     0.000000
      dxy     :     0.000000
  8 C s       :     0.000000  s :     0.000000
      pz      :     0.000000  p :     0.000000
      px      :     0.000000
      py      :     0.000000
      dz2     :     0.000000  d :     0.000000
      dxz     :     0.000000
      dyz     :     0.000000
      dx2y2   :     0.000000
      dxy     :     0.000000
  9 C s       :     0.000000  s :     0.000000
      pz      :     0.000000  p :     0.000000
      px      :     0.000000
      py      :     0.000000
      dz2     :     0.000000  d :     0.000000
      dxz     :     0.000000
      dyz     :     0.000000
      dx2y2   :     0.000000
      dxy     :     0.000000
 10 H s       :     0.000000  s :     0.000000
 11 H s       :     0.000000  s :     0.000000
 12 H s       :     0.000000  s :     0.000000
 13 H s       :     0.000000  s :     0.000000
 14 H s       :     0.000000  s :     0.000000
 15 H s       :     0.000000  s :     0.000000
 16 H s       :     0.000000  s :     0.000000
 17 H s       :     0.000000  s :     0.000000
 18 H s       :     0.000000  s :     0.000000
 19 H s       :     0.000000  s :     0.000000
 20 H s       :     0.000000  s :     0.000000
 21 H s       :     0.000000  s :     0.000000
 22 H s       :     0.000000  s :     0.000000
 23 H s       :     0.000000  s :     0.000000
 24 H s       :     0.000000  s :     0.000000
 25 H s       :     0.000000  s :     0.000000
 26 H s       :     0.000000  s :     0.000000
 27 H s       :     0.000000  s :     0.000000
 28 H s       :     0.000000  s :     0.000000
 29 H s       :     0.000000  s :     0.000000
 30 H s       :     0.000000  s :     0.000000
 31 H s       :     0.000000  s :     0.000000


                      *****************************
                      * MAYER POPULATION ANALYSIS *
                      *****************************

  NA   - Mulliken gross atomic population
  ZA   - Total nuclear charge
  QA   - Mulliken gross atomic charge
  VA   - Mayer's total valence
  BVA  - Mayer's bonded valence
  FA   - Mayer's free valence

  ATOM       NA         ZA         QA         VA         BVA        FA
  0 C      6.2800     6.0000    -0.2800     4.0062     4.0062     0.0000
  1 C      6.1188     6.0000    -0.1188     4.1139     4.1139     0.0000
  2 C      6.1598     6.0000    -0.1598     4.0865     4.0865     0.0000
  3 C      6.1330     6.0000    -0.1330     4.0879     4.0879     0.0000
  4 C      6.1415     6.0000    -0.1415     4.0950     4.0950     0.0000
  5 C      6.1404     6.0000    -0.1404     4.0894     4.0894     0.0000
  6 C      6.1319     6.0000    -0.1319     4.0836     4.0836     0.0000
  7 C      6.1662     6.0000    -0.1662     4.0921     4.0921     0.0000
  8 C      6.1192     6.0000    -0.1192     4.1124     4.1124     0.0000
  9 C      6.2786     6.0000    -0.2786     4.0088     4.0088     0.0000
 10 H      0.9144     1.0000     0.0856     0.9578     0.9578     0.0000
 11 H      0.9065     1.0000     0.0935     0.9512     0.9512     0.0000
 12 H      0.8964     1.0000     0.1036     0.9557     0.9557     0.0000
 13 H      0.9362     1.0000     0.0638     0.9521     0.9521     0.0000
 14 H      0.9299     1.0000     0.0701     0.9462     0.9462     0.0000
 15 H      0.9329     1.0000     0.0671     0.9527     0.9527     0.0000
 16 H      0.9251     1.0000     0.0749     0.9548     0.9548     0.0000
 17 H      0.9267     1.0000     0.0733     0.9585     0.9585     0.0000
 18 H      0.9381     1.0000     0.0619     0.9527     0.9527     0.0000
 19 H      0.9241     1.0000     0.0759     0.9563     0.9563     0.0000
 20 H      0.9370     1.0000     0.0630     0.9526     0.9526     0.0000
 21 H      0.9350     1.0000     0.0650     0.9532     0.9532     0.0000
 22 H      0.9248     1.0000     0.0752     0.9557     0.9557     0.0000
 23 H      0.9271     1.0000     0.0729     0.9548     0.9548     0.0000
 24 H      0.9380     1.0000     0.0620     0.9570     0.9570     0.0000
 25 H      0.9356     1.0000     0.0644     0.9558     0.9558     0.0000
 26 H      0.9205     1.0000     0.0795     0.9515     0.9515     0.0000
 27 H      0.9333     1.0000     0.0667     0.9516     0.9516     0.0000
 28 H      0.9293     1.0000     0.0707     0.9461     0.9461     0.0000
 29 H      0.9057     1.0000     0.0943     0.9514     0.9514     0.0000
 30 H      0.9132     1.0000     0.0868     0.9570     0.9570     0.0000
 31 H      0.9008     1.0000     0.0992     0.9564     0.9564     0.0000

  Mayer bond orders larger than 0.100000
B(  0-C ,  1-C ) :   1.1259 B(  0-C , 10-H ) :   0.9607 B(  0-C , 11-H ) :   0.9587 
B(  0-C , 12-H ) :   0.9571 B(  1-C ,  2-C ) :   1.1114 B(  1-C , 13-H ) :   0.9337 
B(  1-C , 14-H ) :   0.9378 B(  2-C ,  3-C ) :   1.1113 B(  2-C , 15-H ) :   0.9304 
B(  2-C , 16-H ) :   0.9269 B(  3-C ,  4-C ) :   1.1170 B(  3-C , 17-H ) :   0.9225 
B(  3-C , 18-H ) :   0.9303 B(  4-C ,  5-C ) :   1.1149 B(  4-C , 19-H ) :   0.9209 
B(  4-C , 20-H ) :   0.9306 B(  5-C ,  6-C ) :   1.1127 B(  5-C , 21-H ) :   0.9291 
B(  5-C , 22-H ) :   0.9226 B(  6-C ,  7-C ) :   1.1126 B(  6-C , 23-H ) :   0.9272 
B(  6-C , 24-H ) :   0.9271 B(  7-C ,  8-C ) :   1.1099 B(  7-C , 25-H ) :   0.9307 
B(  7-C , 26-H ) :   0.9279 B(  8-C ,  9-C ) :   1.1294 B(  8-C , 27-H ) :   0.9336 
B(  8-C , 28-H ) :   0.9365 B(  9-C , 29-H ) :   0.9584 B(  9-C , 30-H ) :   0.9612 
B(  9-C , 31-H ) :   0.9555 

-------
TIMINGS
-------

Total SCF time: 0 days 0 hours 1 min 44 sec 

Total time                  ....     104.220 sec
Sum of individual times     ....      93.779 sec  ( 90.0%)

Fock matrix formation       ....      87.980 sec  ( 84.4%)
  XC integration            ....      28.379 sec  ( 32.3% of F)
    Basis function eval.    ....       1.945 sec  (  6.9% of XC)
    Density eval.           ....       1.819 sec  (  6.4% of XC)
    XC-Functional eval.     ....       0.381 sec  (  1.3% of XC)
    XC-Potential eval.      ....       2.277 sec  (  8.0% of XC)
Diagonalization             ....       0.122 sec  (  0.1%)
Density matrix formation    ....       1.181 sec  (  1.1%)
Population analysis         ....       0.312 sec  (  0.3%)
Initial guess               ....       0.015 sec  (  0.0%)
Orbital Transformation      ....       0.000 sec  (  0.0%)
Orbital Orthonormalization  ....       0.008 sec  (  0.0%)
DIIS solution               ....       0.739 sec  (  0.7%)
Grid generation             ....       3.431 sec  (  3.3%)


-------------------------------------------------------------------------------
                          DFT DISPERSION CORRECTION                            
                                                                               
                              DFTD3 V3.1  Rev 1                                
                          USING Becke-Johnson damping                          
-------------------------------------------------------------------------------
The B3LYP functional is recognized
Active option DFTDOPT                   ...         4   

molecular C6(AA) [au] = 6609.747011 


            DFT-D V3
 parameters
 s6 scaling factor         :     1.0000 
 a1 scaling factor         :     0.3981 
 s8 scaling factor         :     1.9889 
 a2 scaling factor         :     4.4211 
 ad hoc parameters k1-k3   :    16.0000     1.3333    -4.0000 

 Edisp/kcal,au: -28.420038622169  -0.045290209575 
 E6   /kcal   : -14.272994298 
 E8   /kcal   : -14.147044324 
 % E8         :  49.778413438 

-------------------------   ----------------
Dispersion correction           -0.045290210
-------------------------   ----------------


-------------------------   --------------------
FINAL SINGLE POINT ENERGY      -393.747367109079
-------------------------   --------------------

                                *** OPTIMIZATION RUN DONE ***

                            ***************************************
                            *     ORCA property calculations      *
                            ***************************************

                                    ---------------------
                                    Active property flags
                                    ---------------------
   (+) Dipole Moment


------------------------------------------------------------------------------
                       ORCA ELECTRIC PROPERTIES CALCULATION
------------------------------------------------------------------------------

Dipole Moment Calculation                       ... on
Quadrupole Moment Calculation                   ... off
Polarizability Calculation                      ... off
GBWName                                         ... orca0.gbw
Electron density file                           ... orca0.scfp
The origin for moment calculation is the CENTER OF MASS  = ( 0.002136,  0.069380  0.123513)

-------------
DIPOLE MOMENT
-------------
                                X             Y             Z
Electronic contribution:      0.03197       1.22195       0.33916
Nuclear contribution   :     -0.03705      -1.20319      -0.34580
                        -----------------------------------------
Total Dipole Moment    :     -0.00508       0.01876      -0.00663
                        -----------------------------------------
Magnitude (a.u.)       :      0.02053
Magnitude (Debye)      :      0.05219



--------------------
Rotational spectrum 
--------------------
 
Rotational constants in cm-1:     0.133553     0.011015     0.010964 
Rotational constants in MHz :  4003.823018   330.213350   328.694433 

 Dipole components along the rotational axes: 
x,y,z [a.u.] :     0.003505    -0.019009     0.006929 
x,y,z [Debye]:     0.008909    -0.048318     0.017611 

 

Timings for individual modules:

Sum of individual times         ...     8419.375 sec (= 140.323 min)
GTO integral calculation        ...      157.014 sec (=   2.617 min)   1.9 %
SCF iterations                  ...     7369.551 sec (= 122.826 min)  87.5 %
SCF Gradient evaluation         ...      811.334 sec (=  13.522 min)   9.6 %
Geometry relaxation             ...       81.478 sec (=   1.358 min)   1.0 %
                             ****ORCA TERMINATED NORMALLY****
TOTAL RUN TIME: 0 days 2 hours 23 minutes 37 seconds 99 msec
