14
Properties=species:S:1:pos:R:3 energy=-4307.601558560048 smiles=CCCC name=nbu_bent pbc="F F F"
C       -1.59369104       0.38389720       0.02384261
C       -0.53181861      -0.48138926      -0.70167292
C        0.74200974      -0.77240620       0.14363735
C        1.59907375       0.48111867       0.45538684
H       -1.20506482       1.38642115       0.27271268
H       -1.91472310      -0.09494663       0.96695336
H       -2.49073412       0.52197508      -0.60470444
H       -0.23194946       0.01628630      -1.64540388
H       -0.99188639      -1.44536450      -0.99299446
H        0.44166794      -1.25911270       1.09292709
H        1.36647651      -1.50868957      -0.39833794
H        2.51692460       0.20769511       1.00450267
H        1.04781154       1.21050991       1.07333673
H        1.90410163       0.99220746      -0.47591922
14
Properties=species:S:1:pos:R:3 energy=-4307.638474969947 smiles=CCCC name=nbu_straight pbc="F F F"
C       -1.91202646      -0.17963806      -0.18521006
C       -0.64592903      -0.21714148       0.70659097
C        0.66041417       0.10142538      -0.06901675
C        1.92692131       0.06014354       0.82211019
H       -2.82121978      -0.41425506       0.39544122
H       -2.04974003       0.81890696      -0.63801107
H       -1.83996464      -0.91265334      -1.00904682
H       -0.75876005       0.50568122       1.53882678
H       -0.55383488      -1.21642092       1.17626503
H        0.77152532      -0.61975672      -0.90296687
H        0.56990778       1.10198967      -0.53645033
H        1.85655296       0.79174294       1.64721128
H        2.06325624      -0.93951316       1.27279564
H        2.83610428       0.29421964       0.24134162
