
                                 *****************
                                 * O   R   C   A *
                                 *****************

           --- An Ab Initio, DFT and Semiempirical electronic structure package ---

                  #######################################################
                  #                        -***-                        #
                  #          Department of theory and spectroscopy      #
                  #               Directorship: Frank Neese             #
                  #        Max Planck Institute fuer Kohlenforschung    #
                  #                Kaiser Wilhelm Platz 1               #
                  #                 D-45470 Muelheim/Ruhr               #
                  #                      Germany                        #
                  #                                                     #
                  #                  All rights reserved                #
                  #                        -***-                        #
                  #######################################################


                         Program Version 4.2.1 -  RELEASE  -


 With contributions from (in alphabetic order):
   Daniel Aravena         : Magnetic Suceptibility
   Michael Atanasov       : Ab Initio Ligand Field Theory (pilot matlab implementation)
   Alexander A. Auer      : GIAO ZORA, VPT2
   Ute Becker             : Parallelization
   Giovanni Bistoni       : ED, misc. LED, open-shell LED, HFLD
   Martin Brehm           : Molecular dynamics
   Dmytro Bykov           : SCF Hessian
   Vijay G. Chilkuri      : MRCI spin determinant printing, contributions to CSF-ICE
   Dipayan Datta          : RHF DLPNO-CCSD density
   Achintya Kumar Dutta   : EOM-CC, STEOM-CC
   Dmitry Ganyushin       : Spin-Orbit,Spin-Spin,Magnetic field MRCI
   Miquel Garcia          : C-PCM Hessian, Gaussian charge scheme
   Yang Guo               : DLPNO-NEVPT2, CIM, IAO-localization
   Andreas Hansen         : Spin unrestricted coupled pair/coupled cluster methods
   Benjamin Helmich-Paris : CASSCF linear response (MC-RPA)
   Lee Huntington         : MR-EOM, pCC
   Robert Izsak           : Overlap fitted RIJCOSX, COSX-SCS-MP3, EOM
   Christian Kollmar      : KDIIS, OOCD, Brueckner-CCSD(T), CCSD density
   Simone Kossmann        : Meta GGA functionals, TD-DFT gradient, OOMP2, MP2 Hessian
   Martin Krupicka        : AUTO-CI
   Lucas Lang             : DCDCAS
   Dagmar Lenk            : GEPOL surface, SMD
   Dimitrios Liakos       : Extrapolation schemes; Compound Job, initial MDCI parallelization
   Dimitrios Manganas     : Further ROCIS development; embedding schemes
   Dimitrios Pantazis     : SARC Basis sets
   Taras Petrenko         : DFT Hessian,TD-DFT gradient, ASA, ECA, R-Raman, ABS, FL, XAS/XES, NRVS
   Peter Pinski           : DLPNO-MP2, DLPNO-MP2 Gradient
   Christoph Reimann      : Effective Core Potentials
   Marius Retegan         : Local ZFS, SOC
   Christoph Riplinger    : Optimizer, TS searches, QM/MM, DLPNO-CCSD(T), (RO)-DLPNO pert. Triples
   Tobias Risthaus        : Range-separated hybrids, TD-DFT gradient, RPA, STAB
   Michael Roemelt        : Original ROCIS implementation
   Masaaki Saitow         : Open-shell DLPNO-CCSD energy and density
   Barbara Sandhoefer     : DKH picture change effects
   Avijit Sen             : IP-ROCIS
   Kantharuban Sivalingam : CASSCF convergence, NEVPT2, FIC-MRCI
   Bernardo de Souza      : ESD, SOC TD-DFT
   Georgi Stoychev        : AutoAux, RI-MP2 NMR
   Willem Van den Heuvel  : Paramagnetic NMR
   Boris Wezisla          : Elementary symmetry handling
   Frank Wennmohs         : Technical directorship


 We gratefully acknowledge several colleagues who have allowed us to
 interface, adapt or use parts of their codes:
   Stefan Grimme, W. Hujo, H. Kruse,             : VdW corrections, initial TS optimization,
                  C. Bannwarth                     DFT functionals, gCP, sTDA/sTD-DF
   Ed Valeev, F. Pavosevic, A. Kumar             : LibInt (2-el integral package), F12 methods
   Garnet Chan, S. Sharma, J. Yang, R. Olivares  : DMRG
   Ulf Ekstrom                                   : XCFun DFT Library
   Mihaly Kallay                                 : mrcc  (arbitrary order and MRCC methods)
   Andreas Klamt, Michael Diedenhofen            : otool_cosmo (COSMO solvation model)
   Jiri Pittner, Ondrej Demel                    : Mk-CCSD
   Frank Weinhold                                : gennbo (NPA and NBO analysis)
   Christopher J. Cramer and Donald G. Truhlar   : smd solvation model
   Lars Goerigk                                  : TD-DFT with DH, B97 family of functionals
   V. Asgeirsson, H. Jonsson                     : NEB implementation
   FAccTs GmbH                                   : IRC, NEB, NEB-TS, Multilevel, MM, QM/MM, CI optimization
   S Lehtola, MJT Oliveira, MAL Marques          : LibXC Library


 Your calculation uses the libint2 library for the computation of 2-el integrals
 For citations please refer to: http://libint.valeyev.net

 Your ORCA version has been built with support for libXC version: 4.2.3
 For citations please refer to: https://tddft.org/programs/libxc/

 This ORCA versions uses:
   CBLAS   interface :  Fast vector & matrix operations
   LAPACKE interface :  Fast linear algebra routines
   SCALAPACK package :  Parallel linear algebra routines


Your calculation utilizes the atom-pairwise dispersion correction
with the Becke-Johnson damping scheme (D3BJ)
Cite in your paper:
S.Grimme, S.Ehrlich, L.Goerigk, J Comput Chem, (2011), 32, 1456–1465 
S.Grimme, J.Antony, S.Ehrlich and H.Krieg, J.Chem.Phys., 132, (2010), 154104 
   

----- Orbital basis set information -----
Your calculation utilizes the basis: def2-SV(P)
   F. Weigend and R. Ahlrichs, Phys. Chem. Chem. Phys. 7, 3297 (2005).

----- AuxJ basis set information -----
Your calculation utilizes the auxiliary basis: def2/J
   F. Weigend, Phys. Chem. Chem. Phys. 8, 1057 (2006).

================================================================================
                                        WARNINGS
                       Please study these warnings very carefully!
================================================================================


WARNING: Geometry Optimization
  ===> : Switching off AutoStart
         For restart on a previous wavefunction, please use MOREAD

INFO   : the flag for use of LIBINT has been found!

================================================================================
                                       INPUT FILE
================================================================================
NAME = orca0.inp
|  1> ! UKS B3LYP def2-SV(P) def2/J D3BJ Opt
|  2> %scf Convergence VeryTight
|  3> SmearTemp 2000
|  4> maxiter 500
|  5> end
|  6> *xyz 0 2
|  7> C 0.072221 -0.032482 -0.346561
|  8> C 0.505744 1.301146 0.180439
|  9> C -1.411939 -0.161291 -0.122208
| 10> C 0.859189 -1.191009 0.177817
| 11> H 0.212715 -0.009292 -1.458175
| 12> H 0.923668 1.947962 -0.632595
| 13> H 1.273966 1.24313 0.964704
| 14> H -1.690969 -0.415783 0.909117
| 15> H -1.839215 0.850244 -0.33206
| 16> H -1.879757 -0.839576 -0.877447
| 17> H 0.274192 -1.913705 0.771976
| 18> H 1.724278 -0.894638 0.817025
| 19> H 1.313489 -1.79121 -0.651259
| 20> *
| 21> 
| 22>                          ****END OF INPUT****
================================================================================

                       *****************************
                       * Geometry Optimization Run *
                       *****************************

Geometry optimization settings:
Update method            Update   .... BFGS
Choice of coordinates    CoordSys .... Z-matrix Internals
Initial Hessian          InHess   .... Almoef's Model

Convergence Tolerances:
Energy Change            TolE     ....  5.0000e-06 Eh
Max. Gradient            TolMAXG  ....  3.0000e-04 Eh/bohr
RMS Gradient             TolRMSG  ....  1.0000e-04 Eh/bohr
Max. Displacement        TolMAXD  ....  4.0000e-03 bohr
RMS Displacement         TolRMSD  ....  2.0000e-03 bohr
Strict Convergence                ....  False
------------------------------------------------------------------------------
                        ORCA OPTIMIZATION COORDINATE SETUP
------------------------------------------------------------------------------

The optimization will be done in new redundant internal coordinates
Making redundant internal coordinates   ...  (new redundants) done
Evaluating the initial hessian          ...  (Almloef) done
Evaluating the coordinates              ...  done
Calculating the B-matrix                .... done
Calculating the G-matrix                .... done
Diagonalizing the G-matrix              .... done
The first mode is                       ....   24
The number of degrees of freedom        ....   33

    -----------------------------------------------------------------
                    Redundant Internal Coordinates


    -----------------------------------------------------------------
         Definition                    Initial Value    Approx d2E/dq
    -----------------------------------------------------------------
      1. B(C   1,C   0)                  1.4981         0.420057   
      2. B(C   2,C   0)                  1.5065         0.407202   
      3. B(C   3,C   0)                  1.4955         0.424076   
      4. B(H   4,C   0)                  1.1207         0.321698   
      5. B(H   5,C   1)                  1.1198         0.322705   
      6. B(H   6,C   1)                  1.0994         0.347923   
      7. B(H   7,C   2)                  1.0983         0.349290   
      8. B(H   8,C   2)                  1.1179         0.324964   
      9. B(H   9,C   2)                  1.1177         0.325229   
     10. B(H  10,C   3)                  1.1034         0.342777   
     11. B(H  11,C   3)                  1.1157         0.327650   
     12. B(H  12,C   3)                  1.1198         0.322736   
     13. A(C   1,C   0,H   4)          107.1116         0.324559   
     14. A(C   2,C   0,H   4)          105.8418         0.322907   
     15. A(C   1,C   0,C   2)          107.9878         0.376281   
     16. A(C   1,C   0,C   3)          114.4570         0.378934   
     17. A(C   2,C   0,C   3)          113.5757         0.376901   
     18. A(C   3,C   0,H   4)          107.3291         0.325067   
     19. A(H   5,C   1,H   6)          106.7159         0.284365   
     20. A(C   0,C   1,H   6)          113.9661         0.328774   
     21. A(C   0,C   1,H   5)          111.5174         0.324725   
     22. A(H   7,C   2,H   9)          112.8016         0.284884   
     23. A(C   0,C   2,H   9)          111.3208         0.323486   
     24. A(H   7,C   2,H   8)          106.7876         0.284848   
     25. A(C   0,C   2,H   8)          105.7359         0.323443   
     26. A(H   8,C   2,H   9)          105.2054         0.281709   
     27. A(C   0,C   2,H   7)          114.2007         0.327305   
     28. A(H  11,C   3,H  12)          104.5948         0.281732   
     29. A(H  10,C   3,H  12)          105.2305         0.283712   
     30. A(C   0,C   3,H  12)          111.6600         0.325239   
     31. A(H  10,C   3,H  11)          106.0549         0.284379   
     32. A(C   0,C   3,H  11)          113.7739         0.326049   
     33. A(C   0,C   3,H  10)          114.6584         0.328483   
     34. D(H   6,C   1,C   0,C   3)     -6.2097         0.013047   
     35. D(H   6,C   1,C   0,H   4)   -125.0518         0.013047   
     36. D(H   6,C   1,C   0,C   2)    121.3536         0.013047   
     37. D(H   5,C   1,C   0,H   4)     -4.1479         0.013047   
     38. D(H   5,C   1,C   0,C   2)   -117.7425         0.013047   
     39. D(H   5,C   1,C   0,C   3)    114.6942         0.013047   
     40. D(H   7,C   2,C   0,C   1)    -78.2189         0.013140   
     41. D(H   9,C   2,C   0,C   1)    152.6194         0.013140   
     42. D(H   8,C   2,C   0,H   4)    -75.5517         0.013140   
     43. D(H   8,C   2,C   0,C   1)     38.8858         0.013140   
     44. D(H   7,C   2,C   0,H   4)    167.3436         0.013140   
     45. D(H   7,C   2,C   0,C   3)     49.8504         0.013140   
     46. D(H   9,C   2,C   0,C   3)    -79.3113         0.013140   
     47. D(H   9,C   2,C   0,H   4)     38.1819         0.013140   
     48. D(H   8,C   2,C   0,C   3)    166.9551         0.013140   
     49. D(H  12,C   3,C   0,H   4)     -4.8166         0.014224   
     50. D(H  12,C   3,C   0,C   1)   -123.5360         0.014224   
     51. D(H  11,C   3,C   0,H   4)    113.2963         0.014224   
     52. D(H  11,C   3,C   0,C   2)   -130.0776         0.014224   
     53. D(H  11,C   3,C   0,C   1)     -5.4231         0.014224   
     54. D(H  10,C   3,C   0,H   4)   -124.3768         0.014224   
     55. D(H  12,C   3,C   0,C   2)    111.8095         0.014224   
     56. D(H  10,C   3,C   0,C   2)     -7.7507         0.014224   
     57. D(H  10,C   3,C   0,C   1)    116.9038         0.014224   
    -----------------------------------------------------------------

Number of atoms                         .... 13
Number of degrees of freedom            .... 57

Time needed for optimization step       :     3.83 sec

         *************************************************************
         *                GEOMETRY OPTIMIZATION CYCLE   1            *
         *************************************************************
---------------------------------
CARTESIAN COORDINATES (ANGSTROEM)
---------------------------------
  C      0.072221   -0.032482   -0.346561
  C      0.505744    1.301146    0.180439
  C     -1.411939   -0.161291   -0.122208
  C      0.859189   -1.191009    0.177817
  H      0.212715   -0.009292   -1.458175
  H      0.923668    1.947962   -0.632595
  H      1.273966    1.243130    0.964704
  H     -1.690969   -0.415783    0.909117
  H     -1.839215    0.850244   -0.332060
  H     -1.879757   -0.839576   -0.877447
  H      0.274192   -1.913705    0.771976
  H      1.724278   -0.894638    0.817025
  H      1.313489   -1.791210   -0.651259

----------------------------
CARTESIAN COORDINATES (A.U.)
----------------------------
  NO LB      ZA    FRAG     MASS         X           Y           Z
   0 C     6.0000    0    12.011    0.136478   -0.061382   -0.654905
   1 C     6.0000    0    12.011    0.955718    2.458810    0.340980
   2 C     6.0000    0    12.011   -2.668178   -0.304796   -0.230940
   3 C     6.0000    0    12.011    1.623632   -2.250681    0.336025
   4 H     1.0000    0     1.008    0.401973   -0.017559   -2.755551
   5 H     1.0000    0     1.008    1.745480    3.681115   -1.195431
   6 H     1.0000    0     1.008    2.407447    2.349175    1.823026
   7 H     1.0000    0     1.008   -3.195468   -0.785716    1.717982
   8 H     1.0000    0     1.008   -3.475613    1.606728   -0.627502
   9 H     1.0000    0     1.008   -3.552226   -1.586569   -1.658135
  10 H     1.0000    0     1.008    0.518148   -3.616378    1.458823
  11 H     1.0000    0     1.008    3.258413   -1.690621    1.543953
  12 H     1.0000    0     1.008    2.482134   -3.384896   -1.230701

--------------------------------
INTERNAL COORDINATES (ANGSTROEM)
--------------------------------
 C      0   0   0     0.000000000000     0.00000000     0.00000000
 C      1   0   0     1.498077045386     0.00000000     0.00000000
 C      1   2   0     1.506538062144   107.98780643     0.00000000
 C      1   2   3     1.495485115151   114.45698727   232.43668760
 H      1   2   3     1.120697115697   107.11159823   113.59459130
 H      2   1   3     1.119846280874   111.51741321   242.25751885
 H      2   1   3     1.099364583641   113.96610645   121.35358761
 H      3   1   2     1.098296487561   114.20067550   281.78111534
 H      3   1   2     1.117947091013   105.73593644    38.88580838
 H      3   1   2     1.117725444584   111.32076598   152.61938926
 H      4   1   2     1.103420099376   114.65835525   116.90379277
 H      4   1   2     1.115706778157   113.77394146   354.57691214
 H      4   1   2     1.119819960608   111.66001987   236.46400174

---------------------------
INTERNAL COORDINATES (A.U.)
---------------------------
 C      0   0   0     0.000000000000     0.00000000     0.00000000
 C      1   0   0     2.830955343294     0.00000000     0.00000000
 C      1   2   0     2.846944347781   107.98780643     0.00000000
 C      1   2   3     2.826057304990   114.45698727   232.43668760
 H      1   2   3     2.117810627743   107.11159823   113.59459130
 H      2   1   3     2.116202782943   111.51741321   242.25751885
 H      2   1   3     2.077497984415   113.96610645   121.35358761
 H      3   1   2     2.075479575338   114.20067550   281.78111534
 H      3   1   2     2.112613834229   105.73593644    38.88580838
 H      3   1   2     2.112194983179   111.32076598   152.61938926
 H      4   1   2     2.085161798484   114.65835525   116.90379277
 H      4   1   2     2.108380256477   113.77394146   354.57691214
 H      4   1   2     2.116153044848   111.66001987   236.46400174

---------------------
BASIS SET INFORMATION
---------------------
There are 2 groups of distinct atoms

 Group   1 Type C   : 7s4p1d contracted to 3s2p1d pattern {511/31/1}
 Group   2 Type H   : 4s contracted to 2s pattern {31}

Atom   0C    basis set group =>   1
Atom   1C    basis set group =>   1
Atom   2C    basis set group =>   1
Atom   3C    basis set group =>   1
Atom   4H    basis set group =>   2
Atom   5H    basis set group =>   2
Atom   6H    basis set group =>   2
Atom   7H    basis set group =>   2
Atom   8H    basis set group =>   2
Atom   9H    basis set group =>   2
Atom  10H    basis set group =>   2
Atom  11H    basis set group =>   2
Atom  12H    basis set group =>   2
---------------------------------
AUXILIARY/J BASIS SET INFORMATION
---------------------------------
There are 2 groups of distinct atoms

 Group   1 Type C   : 12s5p4d2f1g contracted to 6s4p3d1f1g pattern {711111/2111/211/2/1}
 Group   2 Type H   : 5s2p1d contracted to 3s1p1d pattern {311/2/1}

Atom   0C    basis set group =>   1
Atom   1C    basis set group =>   1
Atom   2C    basis set group =>   1
Atom   3C    basis set group =>   1
Atom   4H    basis set group =>   2
Atom   5H    basis set group =>   2
Atom   6H    basis set group =>   2
Atom   7H    basis set group =>   2
Atom   8H    basis set group =>   2
Atom   9H    basis set group =>   2
Atom  10H    basis set group =>   2
Atom  11H    basis set group =>   2
Atom  12H    basis set group =>   2
------------------------------------------------------------------------------
                           ORCA GTO INTEGRAL CALCULATION
------------------------------------------------------------------------------

                         BASIS SET STATISTICS AND STARTUP INFO

 # of primitive gaussian shells          ...   84
 # of primitive gaussian functions       ...  132
 # of contracted shells                  ...   42
 # of contracted basis functions         ...   74
 Highest angular momentum                ...    2
 Maximum contraction depth               ...    5
 Integral package used                   ... LIBINT
 Integral threshhold            Thresh   ...  1.000e-12
 Primitive cut-off              TCut     ...  1.000e-14


------------------------------ INTEGRAL EVALUATION ----------------------------


 * One electron integrals 
 Pre-screening matrix                    ... done
 Shell pair data                         ... done (   0.000 sec)

-------------------------------------------------------------------------------
                                 ORCA SCF
-------------------------------------------------------------------------------

------------
SCF SETTINGS
------------
Hamiltonian:
 Density Functional     Method          .... DFT(GTOs)
 Exchange Functional    Exchange        .... B88
   X-Alpha parameter    XAlpha          ....  0.666667
   Becke's b parameter  XBeta           ....  0.004200
 Correlation Functional Correlation     .... LYP
 LDA part of GGA corr.  LDAOpt          .... VWN-5
 Gradients option       PostSCFGGA      .... off
 Hybrid DFT is turned on
   Fraction HF Exchange ScalHFX         ....  0.200000
   Scaling of DF-GGA-X  ScalDFX         ....  0.720000
   Scaling of DF-GGA-C  ScalDFC         ....  0.810000
   Scaling of DF-LDA-C  ScalLDAC        ....  1.000000
   Perturbative correction              ....  0.000000
   Density functional embedding theory  .... OFF
   NL short-range parameter             ....  4.800000


General Settings:
 Integral files         IntName         .... orca0
 Hartree-Fock type      HFTyp           .... UHF
 Total Charge           Charge          ....    0
 Multiplicity           Mult            ....    2
 Number of Electrons    NEL             ....   33
 Basis Dimension        Dim             ....   74
 Nuclear Repulsion      ENuc            ....    126.9070217339 Eh

Convergence Acceleration:
 DIIS                   CNVDIIS         .... on
   Start iteration      DIISMaxIt       ....    12
   Startup error        DIISStart       ....  0.200000
   # of expansion vecs  DIISMaxEq       ....     5
   Bias factor          DIISBfac        ....   1.050
   Max. coefficient     DIISMaxC        ....  10.000
 Newton-Raphson         CNVNR           .... off
 SOSCF                  CNVSOSCF        .... off
 Level Shifting         CNVShift        .... on
   Level shift para.    LevelShift      ....    0.2500
   Turn off err/grad.   ShiftErr        ....    0.0010
 Zerner damping         CNVZerner       .... off
 Static damping         CNVDamp         .... on
   Fraction old density DampFac         ....    0.7000
   Max. Damping (<1)    DampMax         ....    0.9800
   Min. Damping (>=0)   DampMin         ....    0.0000
   Turn off err/grad.   DampErr         ....    0.1000
 Fernandez-Rico         CNVRico         .... off

SCF Procedure:
 Maximum # iterations   MaxIter         ....   500
 SCF integral mode      SCFMode         .... Direct
   Integral package                     .... LIBINT
 Reset frequency        DirectResetFreq ....    20
 Integral Threshold     Thresh          ....  1.000e-12 Eh
 Primitive CutOff       TCut            ....  1.000e-14 Eh

Convergence Tolerance:
 Convergence Check Mode ConvCheckMode   .... Total+1el-Energy
 Convergence forced     ConvForced      .... 0
 Energy Change          TolE            ....  1.000e-09 Eh
 1-El. energy change                    ....  1.000e-06 Eh
 DIIS Error             TolErr          ....  1.000e-08


Diagonalization of the overlap matrix:
Smallest eigenvalue                        ... 1.895e-03
Time for diagonalization                   ...    0.001 sec
Threshold for overlap eigenvalues          ... 1.000e-08
Number of eigenvalues below threshold      ... 0
Time for construction of square roots      ...    0.294 sec
Total time needed                          ...    0.295 sec

-------------------
DFT GRID GENERATION
-------------------

General Integration Accuracy     IntAcc      ...  4.340
Radial Grid Type                 RadialGrid  ... Gauss-Chebyshev
Angular Grid (max. acc.)         AngularGrid ... Lebedev-110
Angular grid pruning method      GridPruning ... 3 (G Style)
Weight generation scheme         WeightScheme... Becke
Basis function cutoff            BFCut       ...    1.0000e-12
Integration weight cutoff        WCut        ...    1.0000e-14
Grids for H and He will be reduced by one unit

# of grid points (after initial pruning)     ...  13770 (   0.0 sec)
# of grid points (after weights+screening)   ...  12894 (   0.0 sec)
nearest neighbour list constructed           ...    0.0 sec
Grid point re-assignment to atoms done       ...    0.0 sec
Grid point division into batches done        ...    0.0 sec
Reduced shell lists constructed in    0.1 sec

Total number of grid points                  ...    12894
Total number of batches                      ...      209
Average number of points per batch           ...       61
Average number of grid points per atom       ...      992
Average number of shells per batch           ...    37.29 (88.78%)
Average number of basis functions per batch  ...    66.37 (89.69%)
Average number of large shells per batch     ...    32.58 (87.38%)
Average number of large basis fcns per batch ...    57.70 (86.94%)
Maximum spatial batch extension              ...  20.05, 18.95, 21.86 au
Average spatial batch extension              ...   4.23,  4.00,  3.99 au

Time for grid setup =    0.824 sec

------------------------------
INITIAL GUESS: MODEL POTENTIAL
------------------------------
Loading Hartree-Fock densities                     ... done
Calculating cut-offs                               ... done
Setting up the integral package                    ... done
Initializing the effective Hamiltonian             ... done
Starting the Coulomb interaction                   ... done (   0.0 sec)
Reading the grid                                   ... done
Mapping shells                                     ... done
Starting the XC term evaluation                    ... done (   0.1 sec)
  promolecular density results
     # of electrons  =     32.999543300
     EX              =    -23.189081813
     EC              =     -1.031757670
     EX+EC           =    -24.220839484
Transforming the Hamiltonian                       ... done (   0.0 sec)
Diagonalizing the Hamiltonian                      ... done (   0.0 sec)
Back transforming the eigenvectors                 ... done (   0.0 sec)
Now organizing SCF variables                       ... done
                      ------------------
                      INITIAL GUESS DONE (   1.0 sec)
                      ------------------
--------------
SCF ITERATIONS
--------------
ITER       Energy         Delta-E        Max-DP      RMS-DP      [F,P]     Damp
               ***  Starting incremental Fock matrix formation  ***
  0   -157.3555994644   0.000000000000 0.04264580  0.00209638  0.1721285 0.7000
  1   -157.4249089790  -0.069309514593 0.02613623  0.00150902  0.0886801 0.7000
                               ***Turning on DIIS***
  2   -157.4527400717  -0.027831092716 0.03666863  0.00253935  0.0324116 0.0000
  3   -157.4909717806  -0.038231708874 0.01798811  0.00106540  0.0487392 0.0000
  4   -157.5033432681  -0.012371487464 0.00549030  0.00032369  0.0090853 0.0000
  5   -157.5039614795  -0.000618211434 0.00178202  0.00011566  0.0022646 0.0000
  6   -157.5040144728  -0.000052993336 0.00192268  0.00008137  0.0006934 0.0000
  7   -157.5040264027  -0.000011929864 0.00042771  0.00001479  0.0001871 0.0000
  8   -157.5040274169  -0.000001014220 0.00013914  0.00000530  0.0001199 0.0000
  9   -157.5040275436  -0.000000126693 0.00006508  0.00000213  0.0000479 0.0000
 10   -157.5040275700  -0.000000026368 0.00002297  0.00000086  0.0000125 0.0000
 11   -157.5040275750  -0.000000005044 0.00001251  0.00000048  0.0000040 0.0000
 12   -157.5040275763  -0.000000001248 0.00000310  0.00000012  0.0000021 0.0000
 13   -157.5040275764  -0.000000000133 0.00000366  0.00000014  0.0000009 0.0000
 14   -157.5040275765  -0.000000000091 0.00000109  0.00000004  0.0000005 0.0000
 15   -157.5040275765  -0.000000000007 0.00000066  0.00000002  0.0000002 0.0000
 16   -157.5040275765  -0.000000000001 0.00000016  0.00000001  0.0000001 0.0000
                 **** Energy Check signals convergence ****

 Fermi smearing  (ALPHA): E(HOMO(Eh)) = -0.320503 MUE = -0.087966 gap=   7.584 eV
 Fermi smearing   (BETA): E(HOMO(Eh)) = -0.315531 MUE = -0.188292 gap=   6.865 eV

N_FOD(alpha) =  0.000000
 N_FOD(beta) =  0.000000
       N_FOD =  0.000000

               *****************************************************
               *                     SUCCESS                       *
               *           SCF CONVERGED AFTER  17 CYCLES          *
               *****************************************************

Setting up the final grid:

General Integration Accuracy     IntAcc      ...  4.670
Radial Grid Type                 RadialGrid  ... Gauss-Chebyshev
Angular Grid (max. acc.)         AngularGrid ... Lebedev-302
Angular grid pruning method      GridPruning ... 3 (G Style)
Weight generation scheme         WeightScheme... Becke
Basis function cutoff            BFCut       ...    1.0000e-12
Integration weight cutoff        WCut        ...    1.0000e-14
Grids for H and He will be reduced by one unit

# of grid points (after initial pruning)     ...  55394 (   0.0 sec)
# of grid points (after weights+screening)   ...  51254 (   0.1 sec)
nearest neighbour list constructed           ...    0.0 sec
Grid point re-assignment to atoms done       ...    0.0 sec
Grid point division into batches done        ...    0.2 sec
Reduced shell lists constructed in    0.4 sec

Total number of grid points                  ...    51254
Total number of batches                      ...      808
Average number of points per batch           ...       63
Average number of grid points per atom       ...     3943
Average number of shells per batch           ...    34.91 (83.11%)
Average number of basis functions per batch  ...    62.06 (83.86%)
Average number of large shells per batch     ...    29.82 (85.44%)
Average number of large basis fcns per batch ...    52.49 (84.59%)
Maximum spatial batch extension              ...  20.65, 18.81, 19.69 au
Average spatial batch extension              ...   2.66,  2.65,  2.54 au

Final grid set up in    0.7 sec
Final integration                            ... done (   5.1 sec)
Change in XC energy                          ...     0.000370983
Integrated number of electrons               ...    33.000008865
Previous integrated no of electrons          ...    33.002924364

----------------
TOTAL SCF ENERGY
----------------

Total Energy       :         -157.50365659 Eh           -4285.89239 eV

Components:
Nuclear Repulsion  :          126.90702173 Eh            3453.31562 eV
Electronic Energy  :         -284.41067833 Eh           -7739.20801 eV
One Electron Energy:         -461.32235022 Eh          -12553.21934 eV
Two Electron Energy:          176.91167189 Eh            4814.01133 eV

Virial components:
Potential Energy   :         -313.41511081 Eh           -8528.45874 eV
Kinetic Energy     :          155.91145422 Eh            4242.56636 eV
Virial Ratio       :            2.01021222


DFT components:
N(Alpha)           :       16.999997572086 electrons
N(Beta)            :       16.000011292498 electrons
N(Total)           :       33.000008864583 electrons
E(X)               :      -18.889689203740 Eh       
E(C)               :       -1.220964903914 Eh       
E(XC)              :      -20.110654107653 Eh       
DFET-embed. en.    :        0.000000000000 Eh       

---------------
SCF CONVERGENCE
---------------

  Last Energy change         ...   -8.7255e-12  Tolerance :   1.0000e-09
  Last MAX-Density change    ...    1.1212e-07  Tolerance :   1.0000e-08
  Last RMS-Density change    ...    4.6241e-09  Tolerance :   1.0000e-09
  Last DIIS Error            ...    3.5994e-08  Tolerance :   1.0000e-08

             **** THE GBW FILE WAS UPDATED (orca0.gbw) ****
             **** DENSITY FILE WAS UPDATED (orca0.scfp) ****
             **** ENERGY FILE WAS UPDATED (orca0.en.tmp) ****
             **** THE GBW FILE WAS UPDATED (orca0.gbw) ****
             **** DENSITY FILE WAS UPDATED (orca0.scfp) ****
----------------
ORBITAL ENERGIES
----------------
                 SPIN UP ORBITALS
  NO   OCC          E(Eh)            E(eV) 
   0   1.0000     -10.185756      -277.1685 
   1   1.0000     -10.182204      -277.0718 
   2   1.0000     -10.168267      -276.6926 
   3   1.0000     -10.167439      -276.6701 
   4   1.0000      -0.804229       -21.8842 
   5   1.0000      -0.676367       -18.4049 
   6   1.0000      -0.664043       -18.0695 
   7   1.0000      -0.546401       -14.8683 
   8   1.0000      -0.466173       -12.6852 
   9   1.0000      -0.434545       -11.8246 
  10   1.0000      -0.419355       -11.4112 
  11   1.0000      -0.392854       -10.6901 
  12   1.0000      -0.374556       -10.1922 
  13   1.0000      -0.335754        -9.1363 
  14   1.0000      -0.328882        -8.9493 
  15   1.0000      -0.320503        -8.7213 
  16   1.0000      -0.227328        -6.1859 
  17   0.0000       0.051395         1.3985 
  18   0.0000       0.084067         2.2876 
  19   0.0000       0.104002         2.8300 
  20   0.0000       0.111241         3.0270 
  21   0.0000       0.123442         3.3590 
  22   0.0000       0.137547         3.7428 
  23   0.0000       0.144881         3.9424 
  24   0.0000       0.165008         4.4901 
  25   0.0000       0.171112         4.6562 
  26   0.0000       0.237589         6.4651 
  27   0.0000       0.265588         7.2270 
  28   0.0000       0.291432         7.9303 
  29   0.0000       0.406960        11.0739 
  30   0.0000       0.424732        11.5576 
  31   0.0000       0.436104        11.8670 
  32   0.0000       0.488134        13.2828 
  33   0.0000       0.510728        13.8976 
  34   0.0000       0.553754        15.0684 
  35   0.0000       0.573213        15.5979 
  36   0.0000       0.612094        16.6559 
  37   0.0000       0.622766        16.9463 
  38   0.0000       0.628930        17.1141 
  39   0.0000       0.657755        17.8984 
  40   0.0000       0.668363        18.1871 
  41   0.0000       0.677229        18.4283 
  42   0.0000       0.696145        18.9431 
  43   0.0000       0.703370        19.1397 
  44   0.0000       0.708406        19.2767 
  45   0.0000       0.714179        19.4338 
  46   0.0000       0.725701        19.7473 
  47   0.0000       0.737133        20.0584 
  48   0.0000       0.744525        20.2595 
  49   0.0000       0.767357        20.8808 
  50   0.0000       0.804125        21.8813 
  51   0.0000       0.899795        24.4847 
  52   0.0000       0.940570        25.5942 
  53   0.0000       1.090240        29.6669 
  54   0.0000       1.368875        37.2490 
  55   0.0000       1.422428        38.7062 
  56   0.0000       1.762006        47.9466 
  57   0.0000       1.768327        48.1186 
  58   0.0000       1.799635        48.9706 
  59   0.0000       1.836838        49.9829 
  60   0.0000       1.915966        52.1361 
  61   0.0000       1.942160        52.8489 
  62   0.0000       1.949529        53.0494 
  63   0.0000       2.000140        54.4266 
  64   0.0000       2.064085        56.1666 
  65   0.0000       2.099430        57.1284 
  66   0.0000       2.164733        58.9054 
  67   0.0000       2.178457        59.2788 
  68   0.0000       2.210918        60.1622 
  69   0.0000       2.421871        65.9025 
  70   0.0000       2.445224        66.5379 
  71   0.0000       2.499957        68.0273 
  72   0.0000       2.698026        73.4170 
  73   0.0000       2.726279        74.1858 

                 SPIN DOWN ORBITALS
  NO   OCC          E(Eh)            E(eV) 
   0   1.0000     -10.182572      -277.0819 
   1   1.0000     -10.170472      -276.7526 
   2   1.0000     -10.167886      -276.6822 
   3   1.0000     -10.166269      -276.6382 
   4   1.0000      -0.797273       -21.6949 
   5   1.0000      -0.674289       -18.3483 
   6   1.0000      -0.642985       -17.4965 
   7   1.0000      -0.538623       -14.6567 
   8   1.0000      -0.462319       -12.5803 
   9   1.0000      -0.429339       -11.6829 
  10   1.0000      -0.413948       -11.2641 
  11   1.0000      -0.390517       -10.6265 
  12   1.0000      -0.367488        -9.9999 
  13   1.0000      -0.333590        -9.0775 
  14   1.0000      -0.321972        -8.7613 
  15   1.0000      -0.315531        -8.5860 
  16   0.0000      -0.063250        -1.7211 
  17   0.0000       0.053791         1.4637 
  18   0.0000       0.086294         2.3482 
  19   0.0000       0.106992         2.9114 
  20   0.0000       0.114545         3.1169 
  21   0.0000       0.127243         3.4625 
  22   0.0000       0.138798         3.7769 
  23   0.0000       0.145968         3.9720 
  24   0.0000       0.169291         4.6067 
  25   0.0000       0.174358         4.7445 
  26   0.0000       0.241630         6.5751 
  27   0.0000       0.268868         7.3163 
  28   0.0000       0.299374         8.1464 
  29   0.0000       0.412675        11.2295 
  30   0.0000       0.427379        11.6296 
  31   0.0000       0.438740        11.9387 
  32   0.0000       0.505686        13.7604 
  33   0.0000       0.532762        14.4972 
  34   0.0000       0.567778        15.4500 
  35   0.0000       0.581395        15.8206 
  36   0.0000       0.626241        17.0409 
  37   0.0000       0.634961        17.2782 
  38   0.0000       0.639031        17.3889 
  39   0.0000       0.662396        18.0247 
  40   0.0000       0.677087        18.4245 
  41   0.0000       0.680058        18.5053 
  42   0.0000       0.697807        18.9883 
  43   0.0000       0.708326        19.2745 
  44   0.0000       0.710221        19.3261 
  45   0.0000       0.716620        19.5002 
  46   0.0000       0.730367        19.8743 
  47   0.0000       0.744036        20.2463 
  48   0.0000       0.749381        20.3917 
  49   0.0000       0.771896        21.0044 
  50   0.0000       0.810372        22.0513 
  51   0.0000       0.906593        24.6697 
  52   0.0000       0.941960        25.6320 
  53   0.0000       1.094030        29.7701 
  54   0.0000       1.378871        37.5210 
  55   0.0000       1.431537        38.9541 
  56   0.0000       1.772589        48.2346 
  57   0.0000       1.790681        48.7269 
  58   0.0000       1.818958        49.4964 
  59   0.0000       1.855826        50.4996 
  60   0.0000       1.932030        52.5732 
  61   0.0000       1.960876        53.3581 
  62   0.0000       1.965146        53.4743 
  63   0.0000       2.019556        54.9549 
  64   0.0000       2.081163        56.6313 
  65   0.0000       2.108969        57.3880 
  66   0.0000       2.178913        59.2912 
  67   0.0000       2.183725        59.4222 
  68   0.0000       2.222285        60.4714 
  69   0.0000       2.427190        66.0472 
  70   0.0000       2.458194        66.8909 
  71   0.0000       2.504815        68.1595 
  72   0.0000       2.704050        73.5809 
  73   0.0000       2.734006        74.3961 

                    ********************************
                    * MULLIKEN POPULATION ANALYSIS *
                    ********************************

------------------------------------------
FOD BASED MULLIKEN REDUCED ORBITAL CHARGES
------------------------------------------
  0 C s       :    -0.000000  s :    -0.000000
      pz      :     0.000000  p :     0.000000
      px      :     0.000000
      py      :     0.000000
      dz2     :     0.000000  d :     0.000000
      dxz     :     0.000000
      dyz     :     0.000000
      dx2y2   :     0.000000
      dxy     :     0.000000
  1 C s       :     0.000000  s :     0.000000
      pz      :     0.000000  p :     0.000000
      px      :     0.000000
      py      :     0.000000
      dz2     :     0.000000  d :     0.000000
      dxz     :     0.000000
      dyz     :     0.000000
      dx2y2   :     0.000000
      dxy     :     0.000000
  2 C s       :    -0.000000  s :    -0.000000
      pz      :     0.000000  p :     0.000000
      px      :     0.000000
      py      :     0.000000
      dz2     :     0.000000  d :     0.000000
      dxz     :     0.000000
      dyz     :     0.000000
      dx2y2   :     0.000000
      dxy     :     0.000000
  3 C s       :    -0.000000  s :    -0.000000
      pz      :     0.000000  p :     0.000000
      px      :     0.000000
      py      :     0.000000
      dz2     :     0.000000  d :     0.000000
      dxz     :     0.000000
      dyz     :     0.000000
      dx2y2   :     0.000000
      dxy     :     0.000000
  4 H s       :     0.000000  s :     0.000000
  5 H s       :     0.000000  s :     0.000000
  6 H s       :     0.000000  s :     0.000000
  7 H s       :     0.000000  s :     0.000000
  8 H s       :     0.000000  s :     0.000000
  9 H s       :     0.000000  s :     0.000000
 10 H s       :     0.000000  s :     0.000000
 11 H s       :     0.000000  s :     0.000000
 12 H s       :     0.000000  s :     0.000000


                     *******************************
                     * LOEWDIN POPULATION ANALYSIS *
                     *******************************

-------------------------------------------
LOEWDIN ATOMIC CHARGES AND SPIN POPULATIONS
-------------------------------------------
   0 C :   -0.176371   -0.000073
   1 C :   -0.206556    0.951920
   2 C :   -0.301283    0.036072
   3 C :   -0.311175    0.013413
   4 H :    0.114144    0.015706
   5 H :    0.108634   -0.014322
   6 H :    0.104563   -0.012987
   7 H :    0.111323    0.000413
   8 H :    0.110722    0.002578
   9 H :    0.108578    0.005173
  10 H :    0.112524    0.000164
  11 H :    0.110987    0.000704
  12 H :    0.113910    0.001238

----------------------------------------------------
LOEWDIN REDUCED ORBITAL CHARGES AND SPIN POPULATIONS
----------------------------------------------------
CHARGE
  0 C s       :     2.863828  s :     2.863828
      pz      :     1.069216  p :     3.196536
      px      :     1.064221
      py      :     1.063099
      dz2     :     0.030542  d :     0.116007
      dxz     :     0.011558
      dyz     :     0.016571
      dx2y2   :     0.031130
      dxy     :     0.026207
  1 C s       :     3.045248  s :     3.045248
      pz      :     1.075515  p :     3.099915
      px      :     0.978134
      py      :     1.046266
      dz2     :     0.005849  d :     0.061393
      dxz     :     0.017337
      dyz     :     0.017030
      dx2y2   :     0.012930
      dxy     :     0.008246
  2 C s       :     2.956213  s :     2.956213
      pz      :     1.107056  p :     3.268716
      px      :     1.054011
      py      :     1.107649
      dz2     :     0.018121  d :     0.076354
      dxz     :     0.014324
      dyz     :     0.011138
      dx2y2   :     0.016126
      dxy     :     0.016645
  3 C s       :     2.950932  s :     2.950932
      pz      :     1.110877  p :     3.285262
      px      :     1.095044
      py      :     1.079340
      dz2     :     0.004749  d :     0.074981
      dxz     :     0.019718
      dyz     :     0.020699
      dx2y2   :     0.011041
      dxy     :     0.018773
  4 H s       :     0.885856  s :     0.885856
  5 H s       :     0.891366  s :     0.891366
  6 H s       :     0.895437  s :     0.895437
  7 H s       :     0.888677  s :     0.888677
  8 H s       :     0.889278  s :     0.889278
  9 H s       :     0.891422  s :     0.891422
 10 H s       :     0.887476  s :     0.887476
 11 H s       :     0.889013  s :     0.889013
 12 H s       :     0.886090  s :     0.886090

SPIN
  0 C s       :    -0.002002  s :    -0.002002
      pz      :    -0.001927  p :    -0.010067
      px      :    -0.003602
      py      :    -0.004538
      dz2     :     0.002110  d :     0.011997
      dxz     :     0.000118
      dyz     :     0.000621
      dx2y2   :     0.004371
      dxy     :     0.004777
  1 C s       :     0.096082  s :     0.096082
      pz      :     0.137743  p :     0.859543
      px      :     0.534742
      py      :     0.187058
      dz2     :    -0.000196  d :    -0.003705
      dxz     :    -0.001614
      dyz     :    -0.000826
      dx2y2   :    -0.000917
      dxy     :    -0.000152
  2 C s       :     0.013891  s :     0.013891
      pz      :     0.001300  p :     0.022057
      px      :     0.014106
      py      :     0.006651
      dz2     :    -0.000034  d :     0.000123
      dxz     :    -0.000144
      dyz     :     0.000247
      dx2y2   :     0.000178
      dxy     :    -0.000123
  3 C s       :     0.003414  s :     0.003414
      pz      :     0.000421  p :     0.009763
      px      :     0.000553
      py      :     0.008788
      dz2     :     0.000181  d :     0.000236
      dxz     :     0.000180
      dyz     :    -0.000043
      dx2y2   :    -0.000051
      dxy     :    -0.000031
  4 H s       :     0.015706  s :     0.015706
  5 H s       :    -0.014322  s :    -0.014322
  6 H s       :    -0.012987  s :    -0.012987
  7 H s       :     0.000413  s :     0.000413
  8 H s       :     0.002578  s :     0.002578
  9 H s       :     0.005173  s :     0.005173
 10 H s       :     0.000164  s :     0.000164
 11 H s       :     0.000704  s :     0.000704
 12 H s       :     0.001238  s :     0.001238


                      *****************************
                      * MAYER POPULATION ANALYSIS *
                      *****************************

  NA   - Mulliken gross atomic population
  ZA   - Total nuclear charge
  QA   - Mulliken gross atomic charge
  VA   - Mayer's total valence
  BVA  - Mayer's bonded valence
  FA   - Mayer's free valence

  ATOM       NA         ZA         QA         VA         BVA        FA
  0 C      6.1204     6.0000    -0.1204     4.2291     4.2258     0.0033
  1 C      6.2017     6.0000    -0.2017     3.8965     3.0279     0.8685
  2 C      6.2315     6.0000    -0.2315     3.9668     3.9660     0.0008
  3 C      6.2466     6.0000    -0.2466     3.9407     3.9406     0.0002
  4 H      0.9275     1.0000     0.0725     0.9374     0.9371     0.0003
  5 H      0.9093     1.0000     0.0907     0.9482     0.9467     0.0015
  6 H      0.9095     1.0000     0.0905     0.9584     0.9569     0.0015
  7 H      0.9070     1.0000     0.0930     0.9614     0.9614     0.0000
  8 H      0.9107     1.0000     0.0893     0.9592     0.9592     0.0000
  9 H      0.9099     1.0000     0.0901     0.9522     0.9521     0.0001
 10 H      0.9067     1.0000     0.0933     0.9638     0.9638     0.0000
 11 H      0.9086     1.0000     0.0914     0.9642     0.9642     0.0000
 12 H      0.9105     1.0000     0.0895     0.9536     0.9536     0.0000

  Mayer bond orders larger than 0.100000
B(  0-C ,  1-C ) :   1.0939 B(  0-C ,  2-C ) :   1.1058 B(  0-C ,  3-C ) :   1.0764 
B(  0-C ,  4-H ) :   0.9206 B(  1-C ,  5-H ) :   0.9493 B(  1-C ,  6-H ) :   0.9500 
B(  2-C ,  7-H ) :   0.9535 B(  2-C ,  8-H ) :   0.9593 B(  2-C ,  9-H ) :   0.9534 
B(  3-C , 10-H ) :   0.9611 B(  3-C , 11-H ) :   0.9580 B(  3-C , 12-H ) :   0.9583 


-------
TIMINGS
-------

Total SCF time: 0 days 0 hours 2 min 19 sec 

Total time                  ....     139.745 sec
Sum of individual times     ....     115.944 sec  ( 83.0%)

Fock matrix formation       ....     101.946 sec  ( 73.0%)
  XC integration            ....      48.810 sec  ( 47.9% of F)
    Basis function eval.    ....       0.927 sec  (  1.9% of XC)
    Density eval.           ....       0.634 sec  (  1.3% of XC)
    XC-Functional eval.     ....       0.386 sec  (  0.8% of XC)
    XC-Potential eval.      ....       0.974 sec  (  2.0% of XC)
Diagonalization             ....       1.037 sec  (  0.7%)
Density matrix formation    ....       4.885 sec  (  3.5%)
Population analysis         ....       3.713 sec  (  2.7%)
Initial guess               ....       0.208 sec  (  0.1%)
Orbital Transformation      ....       0.000 sec  (  0.0%)
Orbital Orthonormalization  ....       0.000 sec  (  0.0%)
DIIS solution               ....       2.600 sec  (  1.9%)
Grid generation             ....       1.555 sec  (  1.1%)


-------------------------------------------------------------------------------
                          DFT DISPERSION CORRECTION                            
                                                                               
                              DFTD3 V3.1  Rev 1                                
                          USING Becke-Johnson damping                          
-------------------------------------------------------------------------------
The B3LYP functional is recognized
Active option DFTDOPT                   ...         4   

molecular C6(AA) [au] = 1132.250316 


            DFT-D V3
 parameters
 s6 scaling factor         :     1.0000 
 a1 scaling factor         :     0.3981 
 s8 scaling factor         :     1.9889 
 a2 scaling factor         :     4.4211 
 ad hoc parameters k1-k3   :    16.0000     1.3333    -4.0000 

 Edisp/kcal,au: -9.042110344850  -0.014409518508 
 E6   /kcal   :  -4.482645694 
 E8   /kcal   :  -4.559464651 
 % E8         :  50.424784449 

-------------------------   ----------------
Dispersion correction           -0.014409519
-------------------------   ----------------


-------------------------   --------------------
FINAL SINGLE POINT ENERGY      -157.518066111720
-------------------------   --------------------

------------------------------------------------------------------------------
                         ORCA SCF GRADIENT CALCULATION
------------------------------------------------------------------------------

Gradient of the Kohn-Sham DFT energy:
Kohn-Sham wavefunction type      ... UKS
Hartree-Fock exchange scaling    ...    0.200
Number of operators              ...    2
Number of atoms                  ...   13
Basis set dimensions             ...   74
Integral neglect threshold       ... 1.0e-12
Integral primitive cutoff        ... 1.0e-14

Nuclear repulsion gradient       ... done
One Electron Gradient            ... done
Pre-screening matrix             ... done
Starting the two electron gradient:
Two electron gradient done
Exchange-correlation gradient    ... done
Dispersion correction            ... done

------------------
CARTESIAN GRADIENT
------------------

   1   C   :    0.007026510   -0.011450213    0.016025838
   2   C   :   -0.045694813   -0.001241890    0.020694075
   3   C   :    0.026994276   -0.013094843    0.020029100
   4   C   :   -0.029845777    0.030536441   -0.005025768
   5   H   :    0.002041597   -0.002348846   -0.007714293
   6   H   :    0.015289679   -0.006187481   -0.009847715
   7   H   :    0.008039664   -0.005332764   -0.012954515
   8   H   :   -0.000248248    0.004601982   -0.002632820
   9   H   :    0.004450945    0.008353844   -0.002303024
  10   H   :   -0.001075306    0.001997531   -0.011805658
  11   H   :    0.003797104   -0.001454209   -0.001659181
  12   H   :    0.005259241   -0.000332290    0.002977556
  13   H   :    0.003965128   -0.004047263   -0.005783595

Difference to translation invariance:
           :   -0.0000000000    0.0000000000    0.0000000000

Norm of the cartesian gradient     ...    0.0848123626
RMS gradient                       ...    0.0135808470
MAX gradient                       ...    0.0456948135

-------
TIMINGS
-------

Total SCF gradient time            ...        4.431 sec

One electron gradient       ....       0.029 sec  (  0.7%)
Prescreening matrices       ....       0.028 sec  (  0.6%)
Two electron gradient       ....       1.462 sec  ( 33.0%)
XC gradient                 ....       2.698 sec  ( 60.9%)
------------------------------------------------------------------------------
                         ORCA GEOMETRY RELAXATION STEP
------------------------------------------------------------------------------

Reading the OPT-File                    .... done
Getting information on internals        .... done
Copying old internal coords+grads       .... done
Making the new internal coordinates     .... (new redundants).... done
Validating the new internal coordinates .... (new redundants).... done
Calculating the B-matrix                .... done
Calculating the G,G- and P matrices     .... done
Transforming gradient to internals      .... done
Projecting the internal gradient        .... done
Number of atoms                         ....  13
Number of internal coordinates          ....  57
Current Energy                          ....  -157.518066112 Eh
Current gradient norm                   ....     0.084812363 Eh/bohr
Maximum allowed component of the step   ....  0.300
Current trust radius                    ....  0.300
Evaluating the initial hessian          ....  (Almloef) done
Projecting the Hessian                  .... done
Forming the augmented Hessian           .... done
Diagonalizing the augmented Hessian     .... done
Last element of RFO vector              ....  0.937167606
Lowest eigenvalues of augmented Hessian:
 -0.017932558  0.013048024  0.013494907  0.014254950  0.066615286
Length of the computed step             ....  0.372270081
Warning: the length of the step is outside the trust region - taking restricted step instead
The input lambda is                     ....    -0.017933
   iter:   1  x=   -0.032304  g=    3.380553 f(x)=     0.048585
   iter:   2  x=   -0.039008  g=    1.875912 f(x)=     0.012575
   iter:   3  x=   -0.039856  g=    1.513091 f(x)=     0.001284
   iter:   4  x=   -0.039868  g=    1.475022 f(x)=     0.000016
   iter:   5  x=   -0.039868  g=    1.474537 f(x)=     0.000000
   iter:   6  x=   -0.039868  g=    1.474537 f(x)=     0.000000
The output lambda is                    ....    -0.039868 (6 iterations)
The final length of the internal step   ....  0.300000000
Converting the step to cartesian space:
 Initial RMS(Int)=    0.0397359707
Transforming coordinates:
 Iter   0:  RMS(Cart)=    0.0550712910 RMS(Int)=    0.0403445041
 Iter   1:  RMS(Cart)=    0.0027448911 RMS(Int)=    0.0020298312
 Iter   2:  RMS(Cart)=    0.0001418028 RMS(Int)=    0.0001444387
 Iter   3:  RMS(Cart)=    0.0000197980 RMS(Int)=    0.0000149952
 Iter   4:  RMS(Cart)=    0.0000015217 RMS(Int)=    0.0000013625
 Iter   5:  RMS(Cart)=    0.0000001753 RMS(Int)=    0.0000001271
 Iter   6:  RMS(Cart)=    0.0000000174 RMS(Int)=    0.0000000156
done
Storing new coordinates                 .... done

                                .--------------------.
          ----------------------|Geometry convergence|-------------------------
          Item                value                   Tolerance       Converged
          ---------------------------------------------------------------------
          RMS gradient        0.0085162924            0.0001000000      NO
          MAX gradient        0.0313182044            0.0003000000      NO
          RMS step            0.0397359707            0.0020000000      NO
          MAX step            0.0943788289            0.0040000000      NO
          ........................................................
          Max(Bonds)      0.0357      Max(Angles)    4.49
          Max(Dihed)        5.41      Max(Improp)    0.00
          ---------------------------------------------------------------------

The optimization has not yet converged - more geometry cycles are needed


    ---------------------------------------------------------------------------
                         Redundant Internal Coordinates
                            (Angstroem and degrees)

        Definition                    Value    dE/dq     Step     New-Value
    ----------------------------------------------------------------------------
     1. B(C   1,C   0)                1.4981 -0.018579  0.0214    1.5195   
     2. B(C   2,C   0)                1.5065 -0.029343  0.0347    1.5413   
     3. B(C   3,C   0)                1.4955 -0.031318  0.0357    1.5312   
     4. B(H   4,C   0)                1.1207  0.007859 -0.0115    1.1092   
     5. B(H   5,C   1)                1.1198  0.009283 -0.0135    1.1063   
     6. B(H   6,C   1)                1.0994 -0.003340  0.0046    1.1039   
     7. B(H   7,C   2)                1.0983 -0.003474  0.0047    1.1030   
     8. B(H   8,C   2)                1.1179  0.006293 -0.0091    1.1088   
     9. B(H   9,C   2)                1.1177  0.007211 -0.0105    1.1073   
    10. B(H  10,C   3)                1.1034 -0.001952  0.0027    1.1061   
    11. B(H  11,C   3)                1.1157  0.005693 -0.0082    1.1075   
    12. B(H  12,C   3)                1.1198  0.008061 -0.0118    1.1081   
    13. A(C   1,C   0,H   4)          107.11  0.001203   -0.11    107.00   
    14. A(C   2,C   0,H   4)          105.84  0.001574   -0.33    105.51   
    15. A(C   1,C   0,C   2)          107.99 -0.008424    1.61    109.60   
    16. A(C   1,C   0,C   3)          114.46  0.003891   -0.67    113.79   
    17. A(C   2,C   0,C   3)          113.58  0.004702   -0.80    112.78   
    18. A(C   3,C   0,H   4)          107.33 -0.003073    0.31    107.64   
    19. A(H   5,C   1,H   6)          106.72  0.001581    3.23    109.95   
    20. A(C   0,C   1,H   6)          113.97 -0.011911    3.56    117.52   
    21. A(C   0,C   1,H   5)          111.52 -0.017186    4.49    116.01   
    22. A(H   7,C   2,H   9)          112.80  0.004375   -1.73    111.07   
    23. A(C   0,C   2,H   9)          111.32 -0.003884    0.40    111.72   
    24. A(H   7,C   2,H   8)          106.79  0.002472    0.02    106.81   
    25. A(C   0,C   2,H   8)          105.74 -0.012985    2.65    108.38   
    26. A(H   8,C   2,H   9)          105.21  0.002990    0.39    105.60   
    27. A(C   0,C   2,H   7)          114.20  0.005829   -1.26    112.94   
    28. A(H  11,C   3,H  12)          104.59 -0.001280    0.43    105.02   
    29. A(H  10,C   3,H  12)          105.23 -0.002108    0.40    105.63   
    30. A(C   0,C   3,H  12)          111.66 -0.001418    0.33    111.99   
    31. A(H  10,C   3,H  11)          106.05 -0.002722    0.21    106.27   
    32. A(C   0,C   3,H  11)          113.77  0.001775   -0.33    113.45   
    33. A(C   0,C   3,H  10)          114.66  0.004933   -0.89    113.76   
    34. D(H   6,C   1,C   0,C   3)     -6.21  0.008624   -4.90    -11.11   
    35. D(H   6,C   1,C   0,H   4)   -125.05  0.009302   -4.81   -129.86   
    36. D(H   6,C   1,C   0,C   2)    121.35  0.010921   -5.14    116.21   
    37. D(H   5,C   1,C   0,H   4)     -4.15 -0.010223    5.41      1.26   
    38. D(H   5,C   1,C   0,C   2)   -117.74 -0.008604    5.08   -112.67   
    39. D(H   5,C   1,C   0,C   3)    114.69 -0.010902    5.32    120.01   
    40. D(H   7,C   2,C   0,C   1)    -78.22  0.000883    0.12    -78.10   
    41. D(H   9,C   2,C   0,C   1)    152.62 -0.006821    3.28    155.90   
    42. D(H   8,C   2,C   0,H   4)    -75.55  0.000393    0.72    -74.83   
    43. D(H   8,C   2,C   0,C   1)     38.89 -0.001330    1.18     40.06   
    44. D(H   7,C   2,C   0,H   4)    167.34  0.002607   -0.33    167.01   
    45. D(H   7,C   2,C   0,C   3)     49.85  0.002779   -0.06     49.79   
    46. D(H   9,C   2,C   0,C   3)    -79.31 -0.004926    3.10    -76.21   
    47. D(H   9,C   2,C   0,H   4)     38.18 -0.005097    2.83     41.01   
    48. D(H   8,C   2,C   0,C   3)    166.96  0.000565    0.99    167.95   
    49. D(H  12,C   3,C   0,H   4)     -4.82  0.000387   -0.35     -5.16   
    50. D(H  12,C   3,C   0,C   1)   -123.54 -0.001357   -0.02   -123.56   
    51. D(H  11,C   3,C   0,H   4)    113.30 -0.001056    0.22    113.51   
    52. D(H  11,C   3,C   0,C   2)   -130.08  0.001569   -0.44   -130.52   
    53. D(H  11,C   3,C   0,C   1)     -5.42 -0.002800    0.55     -4.88   
    54. D(H  10,C   3,C   0,H   4)   -124.38  0.000686   -0.49   -124.87   
    55. D(H  12,C   3,C   0,C   2)    111.81  0.003012   -1.01    110.80   
    56. D(H  10,C   3,C   0,C   2)     -7.75  0.003311   -1.15     -8.90   
    57. D(H  10,C   3,C   0,C   1)    116.90 -0.001058   -0.16    116.74   
    ----------------------------------------------------------------------------

Time needed for optimization step       :     1.40 sec

         *************************************************************
         *                GEOMETRY OPTIMIZATION CYCLE   2            *
         *************************************************************
---------------------------------
CARTESIAN COORDINATES (ANGSTROEM)
---------------------------------
  C      0.086382   -0.025540   -0.368543
  C      0.570535    1.314544    0.159197
  C     -1.432057   -0.154041   -0.137584
  C      0.871930   -1.223132    0.173013
  H      0.218368   -0.007286   -1.469706
  H      0.921924    2.032498   -0.605631
  H      1.284408    1.297459    1.001062
  H     -1.688111   -0.411237    0.904021
  H     -1.902242    0.827293   -0.350640
  H     -1.895177   -0.865797   -0.848203
  H      0.262252   -1.918446    0.779916
  H      1.734677   -0.934860    0.804793
  H      1.304692   -1.837960   -0.640922

----------------------------
CARTESIAN COORDINATES (A.U.)
----------------------------
  NO LB      ZA    FRAG     MASS         X           Y           Z
   0 C     6.0000    0    12.011    0.163239   -0.048263   -0.696445
   1 C     6.0000    0    12.011    1.078156    2.484128    0.300838
   2 C     6.0000    0    12.011   -2.706196   -0.291095   -0.259996
   3 C     6.0000    0    12.011    1.647708   -2.311384    0.326947
   4 H     1.0000    0     1.008    0.412657   -0.013768   -2.777341
   5 H     1.0000    0     1.008    1.742185    3.840865   -1.144477
   6 H     1.0000    0     1.008    2.427180    2.451841    1.891734
   7 H     1.0000    0     1.008   -3.190068   -0.777125    1.708352
   8 H     1.0000    0     1.008   -3.594716    1.563356   -0.662614
   9 H     1.0000    0     1.008   -3.581365   -1.636119   -1.602871
  10 H     1.0000    0     1.008    0.495584   -3.625338    1.473829
  11 H     1.0000    0     1.008    3.278064   -1.766629    1.520838
  12 H     1.0000    0     1.008    2.465511   -3.473241   -1.211168

--------------------------------
INTERNAL COORDINATES (ANGSTROEM)
--------------------------------
 C      0   0   0     0.000000000000     0.00000000     0.00000000
 C      1   0   0     1.519453059103     0.00000000     0.00000000
 C      1   2   0     1.541270176669   109.59698552     0.00000000
 C      1   2   3     1.531206870521   113.79624592   232.68371013
 H      1   2   3     1.109194648811   107.00034926   113.93026915
 H      2   1   3     1.106297148966   115.68669269   247.47398612
 H      2   1   3     1.103922289473   117.21139284   116.06693614
 H      3   1   2     1.103020665349   112.93254158   281.91007671
 H      3   1   2     1.108819838348   108.37155723    40.04787572
 H      3   1   2     1.107273279693   111.68353650   155.90963736
 H      4   1   2     1.106119977461   113.76157992   116.74701886
 H      4   1   2     1.107510171432   113.44222404   355.12227463
 H      4   1   2     1.108055995677   111.99620748   236.44535215

---------------------------
INTERNAL COORDINATES (A.U.)
---------------------------
 C      0   0   0     0.000000000000     0.00000000     0.00000000
 C      1   0   0     2.871350155053     0.00000000     0.00000000
 C      1   2   0     2.912578532286   109.59698552     0.00000000
 C      1   2   3     2.893561639663   113.79624592   232.68371013
 H      1   2   3     2.096074115465   107.00034926   113.93026915
 H      2   1   3     2.090598634284   115.68669269   247.47398612
 H      2   1   3     2.086110800235   117.21139284   116.06693614
 H      3   1   2     2.084406977564   112.93254158   281.91007671
 H      3   1   2     2.095365826337   108.37155723    40.04787572
 H      3   1   2     2.092443254028   111.68353650   155.90963736
 H      4   1   2     2.090263828661   113.76157992   116.74701886
 H      4   1   2     2.092890914538   113.44222404   355.12227463
 H      4   1   2     2.093922372880   111.99620748   236.44535215


Diagonalization of the overlap matrix:
Smallest eigenvalue                        ... 2.227e-03
Time for diagonalization                   ...    0.001 sec
Threshold for overlap eigenvalues          ... 1.000e-08
Number of eigenvalues below threshold      ... 0
Time for construction of square roots      ...    2.577 sec
Total time needed                          ...    2.579 sec

-------------------
DFT GRID GENERATION
-------------------

General Integration Accuracy     IntAcc      ...  4.340
Radial Grid Type                 RadialGrid  ... Gauss-Chebyshev
Angular Grid (max. acc.)         AngularGrid ... Lebedev-110
Angular grid pruning method      GridPruning ... 3 (G Style)
Weight generation scheme         WeightScheme... Becke
Basis function cutoff            BFCut       ...    1.0000e-12
Integration weight cutoff        WCut        ...    1.0000e-14
Grids for H and He will be reduced by one unit

# of grid points (after initial pruning)     ...  13770 (   0.0 sec)
# of grid points (after weights+screening)   ...  12899 (   0.0 sec)
nearest neighbour list constructed           ...    0.0 sec
Grid point re-assignment to atoms done       ...    0.0 sec
Grid point division into batches done        ...    0.0 sec
Reduced shell lists constructed in    0.1 sec

Total number of grid points                  ...    12899
Total number of batches                      ...      208
Average number of points per batch           ...       62
Average number of grid points per atom       ...      992
Average number of shells per batch           ...    37.16 (88.47%)
Average number of basis functions per batch  ...    66.19 (89.45%)
Average number of large shells per batch     ...    32.35 (87.07%)
Average number of large basis fcns per batch ...    57.19 (86.40%)
Maximum spatial batch extension              ...  21.28, 18.72, 20.98 au
Average spatial batch extension              ...   4.36,  4.03,  3.98 au

Time for grid setup =    0.432 sec

--------------
SCF ITERATIONS
--------------
ITER       Energy         Delta-E        Max-DP      RMS-DP      [F,P]     Damp
               ***  Starting incremental Fock matrix formation  ***
  0   -157.5127261400   0.000000000000 0.00262033  0.00017010  0.0132798 0.7000
  1   -157.5133529719  -0.000626831864 0.00256803  0.00015362  0.0102883 0.7000
                               ***Turning on DIIS***
  2   -157.5138403728  -0.000487400992 0.00729843  0.00040370  0.0078536 0.0000
  3   -157.5150791107  -0.001238737830 0.00311072  0.00009031  0.0015673 0.0000
  4   -157.5151081784  -0.000029067746 0.00282326  0.00007970  0.0009006 0.0000
  5   -157.5151163079  -0.000008129512 0.00055758  0.00001795  0.0004629 0.0000
  6   -157.5151173560  -0.000001048119 0.00030372  0.00000869  0.0001379 0.0000
  7   -157.5151174937  -0.000000137613 0.00003619  0.00000160  0.0000357 0.0000
  8   -157.5151175021  -0.000000008398 0.00001257  0.00000070  0.0000187 0.0000
  9   -157.5151175044  -0.000000002348 0.00000298  0.00000017  0.0000024 0.0000
 10   -157.5151175045  -0.000000000132 0.00000164  0.00000006  0.0000009 0.0000
 11   -157.5151175046  -0.000000000028 0.00000063  0.00000003  0.0000006 0.0000
 12   -157.5151175046  -0.000000000004 0.00000044  0.00000002  0.0000002 0.0000
 13   -157.5151175046  -0.000000000004 0.00000024  0.00000001  0.0000002 0.0000
 14   -157.5151175046   0.000000000007 0.00000006  0.00000000  0.0000000 0.0000
                 **** Energy Check signals convergence ****

 Fermi smearing  (ALPHA): E(HOMO(Eh)) = -0.323962 MUE = -0.081113 gap=   7.470 eV
 Fermi smearing   (BETA): E(HOMO(Eh)) = -0.319896 MUE = -0.186806 gap=   7.181 eV

N_FOD(alpha) =  0.000000
 N_FOD(beta) =  0.000000
       N_FOD =  0.000000

               *****************************************************
               *                     SUCCESS                       *
               *           SCF CONVERGED AFTER  15 CYCLES          *
               *****************************************************

Setting up the final grid:

General Integration Accuracy     IntAcc      ...  4.670
Radial Grid Type                 RadialGrid  ... Gauss-Chebyshev
Angular Grid (max. acc.)         AngularGrid ... Lebedev-302
Angular grid pruning method      GridPruning ... 3 (G Style)
Weight generation scheme         WeightScheme... Becke
Basis function cutoff            BFCut       ...    1.0000e-12
Integration weight cutoff        WCut        ...    1.0000e-14
Grids for H and He will be reduced by one unit

# of grid points (after initial pruning)     ...  55394 (   0.0 sec)
# of grid points (after weights+screening)   ...  51312 (   0.1 sec)
nearest neighbour list constructed           ...    0.0 sec
Grid point re-assignment to atoms done       ...    0.0 sec
Grid point division into batches done        ...    0.2 sec
Reduced shell lists constructed in    0.4 sec

Total number of grid points                  ...    51312
Total number of batches                      ...      809
Average number of points per batch           ...       63
Average number of grid points per atom       ...     3947
Average number of shells per batch           ...    34.77 (82.79%)
Average number of basis functions per batch  ...    61.78 (83.49%)
Average number of large shells per batch     ...    29.56 (85.00%)
Average number of large basis fcns per batch ...    51.85 (83.92%)
Maximum spatial batch extension              ...  19.33, 19.53, 19.73 au
Average spatial batch extension              ...   2.68,  2.64,  2.58 au

Final grid set up in    3.3 sec
Final integration                            ... done (  20.0 sec)
Change in XC energy                          ...     0.000344163
Integrated number of electrons               ...    33.000013429
Previous integrated no of electrons          ...    33.002973682
Total Energy       :         -157.51477334 Eh           -4286.19489 eV
  Last Energy change         ...   -1.5319e-11  Tolerance :   1.0000e-09
  Last MAX-Density change    ...    4.9964e-08  Tolerance :   1.0000e-08
             **** THE GBW FILE WAS UPDATED (orca0.gbw) ****
             **** DENSITY FILE WAS UPDATED (orca0.scfp) ****
             **** ENERGY FILE WAS UPDATED (orca0.en.tmp) ****
             **** THE GBW FILE WAS UPDATED (orca0.gbw) ****
             **** DENSITY FILE WAS UPDATED (orca0.scfp) ****
Total SCF time: 0 days 0 hours 4 min 23 sec 


-------------------------------------------------------------------------------
                          DFT DISPERSION CORRECTION                            
                                                                               
                              DFTD3 V3.1  Rev 1                                
                          USING Becke-Johnson damping                          
-------------------------------------------------------------------------------
-------------------------   ----------------
Dispersion correction           -0.014192509
-------------------------   ----------------


-------------------------   --------------------
FINAL SINGLE POINT ENERGY      -157.528965850277
-------------------------   --------------------

------------------------------------------------------------------------------
                         ORCA SCF GRADIENT CALCULATION
------------------------------------------------------------------------------

Gradient of the Kohn-Sham DFT energy:
Kohn-Sham wavefunction type      ... UKS
Hartree-Fock exchange scaling    ...    0.200
Number of operators              ...    2
Number of atoms                  ...   13
Basis set dimensions             ...   74
Integral neglect threshold       ... 1.0e-12
Integral primitive cutoff        ... 1.0e-14

Nuclear repulsion gradient       ... done
One Electron Gradient            ... done
Pre-screening matrix             ... done
Starting the two electron gradient:
Two electron gradient done
Exchange-correlation gradient    ... done
Dispersion correction            ... done

------------------
CARTESIAN GRADIENT
------------------

   1   C   :    0.006441751   -0.009518678    0.000357571
   2   C   :   -0.027354480    0.008803522    0.010791315
   3   C   :    0.006614087   -0.009222325    0.008315204
   4   C   :   -0.010546201    0.013453348   -0.002983202
   5   H   :    0.000213984   -0.001943722   -0.001680758
   6   H   :    0.010392665   -0.003598862   -0.002694825
   7   H   :    0.008732654   -0.001007956   -0.005894594
   8   H   :   -0.001086213    0.002549833   -0.000407167
   9   H   :    0.001337201    0.002321216   -0.000812211
  10   H   :   -0.001135076    0.004375516   -0.005283420
  11   H   :    0.002475488   -0.002493342   -0.000379932
  12   H   :    0.001997573   -0.002269184    0.000557640
  13   H   :    0.001916567   -0.001449368    0.000114379

Difference to translation invariance:
           :    0.0000000000   -0.0000000000   -0.0000000000

Norm of the cartesian gradient     ...    0.0437281962
RMS gradient                       ...    0.0070021153
MAX gradient                       ...    0.0273544797

-------
TIMINGS
-------

Total SCF gradient time            ...        4.280 sec

One electron gradient       ....       0.029 sec  (  0.7%)
Prescreening matrices       ....       0.028 sec  (  0.7%)
Two electron gradient       ....       1.445 sec  ( 33.8%)
XC gradient                 ....       2.625 sec  ( 61.3%)
------------------------------------------------------------------------------
                         ORCA GEOMETRY RELAXATION STEP
------------------------------------------------------------------------------

Reading the OPT-File                    .... done
Getting information on internals        .... done
Copying old internal coords+grads       .... done
Making the new internal coordinates     .... (new redundants).... done
Validating the new internal coordinates .... (new redundants).... done
Calculating the B-matrix                .... done
Calculating the G,G- and P matrices     .... done
Transforming gradient to internals      .... done
Projecting the internal gradient        .... done
Number of atoms                         ....  13
Number of internal coordinates          ....  57
Current Energy                          ....  -157.528965850 Eh
Current gradient norm                   ....     0.043728196 Eh/bohr
Maximum allowed component of the step   ....  0.300
Current trust radius                    ....  0.300
Updating the Hessian (BFGS)             .... done
Forming the augmented Hessian           .... done
Diagonalizing the augmented Hessian     .... done
Last element of RFO vector              ....  0.940966302
Lowest eigenvalues of augmented Hessian:
 -0.007323357  0.013048202  0.013540638  0.014265468  0.058237449
Length of the computed step             ....  0.359736844
Warning: the length of the step is outside the trust region - taking restricted step instead
The input lambda is                     ....    -0.007323
   iter:   1  x=   -0.013992  g=    5.909812 f(x)=     0.039411
   iter:   2  x=   -0.016515  g=    3.553280 f(x)=     0.008964
   iter:   3  x=   -0.016736  g=    3.040341 f(x)=     0.000674
   iter:   4  x=   -0.016738  g=    3.000996 f(x)=     0.000004
   iter:   5  x=   -0.016738  g=    3.000739 f(x)=     0.000000
   iter:   6  x=   -0.016738  g=    3.000739 f(x)=    -0.000000
The output lambda is                    ....    -0.016738 (6 iterations)
The final length of the internal step   ....  0.300000000
Converting the step to cartesian space:
 Initial RMS(Int)=    0.0397359707
Transforming coordinates:
 Iter   0:  RMS(Cart)=    0.0420499656 RMS(Int)=    0.0401530225
 Iter   1:  RMS(Cart)=    0.0024258667 RMS(Int)=    0.0018341230
 Iter   2:  RMS(Cart)=    0.0001228698 RMS(Int)=    0.0001169440
 Iter   3:  RMS(Cart)=    0.0000141049 RMS(Int)=    0.0000116743
 Iter   4:  RMS(Cart)=    0.0000010730 RMS(Int)=    0.0000009010
 Iter   5:  RMS(Cart)=    0.0000001399 RMS(Int)=    0.0000001146
 Iter   6:  RMS(Cart)=    0.0000000119 RMS(Int)=    0.0000000102
done
Storing new coordinates                 .... done

                                .--------------------.
          ----------------------|Geometry convergence|-------------------------
          Item                value                   Tolerance       Converged
          ---------------------------------------------------------------------
          Energy change      -0.0108997386            0.0000050000      NO
          RMS gradient        0.0032128398            0.0001000000      NO
          MAX gradient        0.0087476654            0.0003000000      NO
          RMS step            0.0397359707            0.0020000000      NO
          MAX step            0.1058428891            0.0040000000      NO
          ........................................................
          Max(Bonds)      0.0183      Max(Angles)    4.08
          Max(Dihed)        6.06      Max(Improp)    0.00
          ---------------------------------------------------------------------

The optimization has not yet converged - more geometry cycles are needed


    ---------------------------------------------------------------------------
                         Redundant Internal Coordinates
                            (Angstroem and degrees)

        Definition                    Value    dE/dq     Step     New-Value
    ----------------------------------------------------------------------------
     1. B(C   1,C   0)                1.5195  0.001842 -0.0025    1.5169   
     2. B(C   2,C   0)                1.5413 -0.005374  0.0121    1.5534   
     3. B(C   3,C   0)                1.5312 -0.008748  0.0183    1.5495   
     4. B(H   4,C   0)                1.1092  0.001662 -0.0044    1.1047   
     5. B(H   5,C   1)                1.1063  0.002830 -0.0074    1.0989   
     6. B(H   6,C   1)                1.1039  0.001166 -0.0025    1.1014   
     7. B(H   7,C   2)                1.1030 -0.000726  0.0018    1.1048   
     8. B(H   8,C   2)                1.1088  0.001643 -0.0043    1.1045   
     9. B(H   9,C   2)                1.1073  0.001052 -0.0029    1.1044   
    10. B(H  10,C   3)                1.1061 -0.000006  0.0001    1.1062   
    11. B(H  11,C   3)                1.1075  0.001284 -0.0034    1.1041   
    12. B(H  12,C   3)                1.1081  0.001468 -0.0040    1.1041   
    13. A(C   1,C   0,H   4)          107.00  0.000586    0.07    107.07   
    14. A(C   2,C   0,H   4)          105.51  0.000237    0.10    105.61   
    15. A(C   1,C   0,C   2)          109.60 -0.003993    1.15    110.75   
    16. A(C   1,C   0,C   3)          113.80  0.001760   -0.71    113.08   
    17. A(C   2,C   0,C   3)          112.78  0.002942   -1.01    111.77   
    18. A(C   3,C   0,H   4)          107.63 -0.001683    0.50    108.14   
    19. A(H   5,C   1,H   6)          109.38 -0.001764    4.08    113.46   
    20. A(C   0,C   1,H   6)          117.21 -0.002841    2.50    119.72   
    21. A(C   0,C   1,H   5)          115.69 -0.005950    3.45    119.14   
    22. A(H   7,C   2,H   9)          111.04  0.001743   -1.63    109.41   
    23. A(C   0,C   2,H   9)          111.68 -0.000147   -0.20    111.49   
    24. A(H   7,C   2,H   8)          106.82 -0.000034    0.45    107.27   
    25. A(C   0,C   2,H   8)          108.37 -0.005021    2.04    110.41   
    26. A(H   8,C   2,H   9)          105.56 -0.000515    1.19    106.74   
    27. A(C   0,C   2,H   7)          112.93  0.003458   -1.36    111.57   
    28. A(H  11,C   3,H  12)          105.02 -0.002573    1.01    106.03   
    29. A(H  10,C   3,H  12)          105.64 -0.002672    0.82    106.46   
    30. A(C   0,C   3,H  12)          112.00  0.000701   -0.07    111.93   
    31. A(H  10,C   3,H  11)          106.26 -0.002894    0.54    106.80   
    32. A(C   0,C   3,H  11)          113.44  0.002593   -0.77    112.67   
    33. A(C   0,C   3,H  10)          113.76  0.003907   -1.22    112.54   
    34. D(H   6,C   1,C   0,C   3)    -11.25  0.005216   -4.73    -15.98   
    35. D(H   6,C   1,C   0,H   4)   -130.00  0.005874   -4.98   -134.99   
    36. D(H   6,C   1,C   0,C   2)    116.07  0.007255   -5.69    110.38   
    37. D(H   5,C   1,C   0,H   4)      1.40 -0.006606    5.81      7.22   
    38. D(H   5,C   1,C   0,C   2)   -112.53 -0.005225    5.11   -107.42   
    39. D(H   5,C   1,C   0,C   3)    120.16 -0.007264    6.06    126.22   
    40. D(H   7,C   2,C   0,C   1)    -78.09  0.000293    0.87    -77.22   
    41. D(H   9,C   2,C   0,C   1)    155.91 -0.004699    4.46    160.37   
    42. D(H   8,C   2,C   0,H   4)    -74.84  0.000112    1.32    -73.52   
    43. D(H   8,C   2,C   0,C   1)     40.05 -0.000965    1.98     42.03   
    44. D(H   7,C   2,C   0,H   4)    167.02  0.001370    0.22    167.24   
[...]

             **** THE GBW FILE WAS UPDATED (orca0.gbw) ****
             **** DENSITY FILE WAS UPDATED (orca0.scfp) ****
             **** ENERGY FILE WAS UPDATED (orca0.en.tmp) ****
             **** THE GBW FILE WAS UPDATED (orca0.gbw) ****
             **** DENSITY FILE WAS UPDATED (orca0.scfp) ****
----------------
ORBITAL ENERGIES
----------------
                 SPIN UP ORBITALS
  NO   OCC          E(Eh)            E(eV) 
   0   1.0000     -10.187432      -277.2141 
   1   1.0000     -10.179845      -277.0077 
   2   1.0000     -10.170182      -276.7447 
   3   1.0000     -10.167772      -276.6791 
   4   1.0000      -0.793175       -21.5834 
   5   1.0000      -0.671204       -18.2644 
   6   1.0000      -0.661172       -17.9914 
   7   1.0000      -0.549814       -14.9612 
   8   1.0000      -0.461901       -12.5690 
   9   1.0000      -0.432259       -11.7624 
  10   1.0000      -0.420979       -11.4554 
  11   1.0000      -0.387034       -10.5317 
  12   1.0000      -0.377714       -10.2781 
  13   1.0000      -0.344800        -9.3825 
  14   1.0000      -0.339352        -9.2342 
  15   1.0000      -0.327585        -8.9141 
  16   1.0000      -0.201909        -5.4942 
  17   0.0000       0.059224         1.6116 
  18   0.0000       0.097725         2.6592 
  19   0.0000       0.106415         2.8957 
  20   0.0000       0.112711         3.0670 
  21   0.0000       0.122811         3.3419 
  22   0.0000       0.141784         3.8581 
  23   0.0000       0.145600         3.9620 
  24   0.0000       0.164125         4.4661 
  25   0.0000       0.174787         4.7562 
  26   0.0000       0.209584         5.7031 
  27   0.0000       0.245624         6.6838 
  28   0.0000       0.259672         7.0660 
  29   0.0000       0.397155        10.8072 
  30   0.0000       0.419943        11.4272 
  31   0.0000       0.427227        11.6254 
  32   0.0000       0.447366        12.1735 
  33   0.0000       0.473727        12.8908 
  34   0.0000       0.499917        13.6034 
  35   0.0000       0.577040        15.7021 
  36   0.0000       0.602976        16.4078 
  37   0.0000       0.641203        17.4480 
  38   0.0000       0.660304        17.9678 
  39   0.0000       0.663740        18.0613 
  40   0.0000       0.665499        18.1092 
  41   0.0000       0.695172        18.9166 
  42   0.0000       0.701689        19.0939 
  43   0.0000       0.704948        19.1826 
  44   0.0000       0.710063        19.3218 
  45   0.0000       0.721791        19.6409 
  46   0.0000       0.725193        19.7335 
  47   0.0000       0.738835        20.1047 
  48   0.0000       0.751720        20.4553 
  49   0.0000       0.754987        20.5442 
  50   0.0000       0.851915        23.1818 
  51   0.0000       0.937618        25.5139 
  52   0.0000       1.040823        28.3222 
  53   0.0000       1.088697        29.6249 
  54   0.0000       1.398720        38.0611 
  55   0.0000       1.523418        41.4543 
  56   0.0000       1.672641        45.5149 
  57   0.0000       1.741495        47.3885 
  58   0.0000       1.752585        47.6903 
  59   0.0000       1.818592        49.4864 
  60   0.0000       1.907945        51.9178 
  61   0.0000       1.935011        52.6543 
  62   0.0000       1.980293        53.8865 
  63   0.0000       2.014911        54.8285 
  64   0.0000       2.046456        55.6869 
  65   0.0000       2.076612        56.5075 
  66   0.0000       2.138682        58.1965 
  67   0.0000       2.146084        58.3979 
  68   0.0000       2.176191        59.2172 
  69   0.0000       2.423382        65.9436 
  70   0.0000       2.431836        66.1736 
  71   0.0000       2.499558        68.0164 
  72   0.0000       2.670509        72.6683 
  73   0.0000       2.679786        72.9207 

                 SPIN DOWN ORBITALS
  NO   OCC          E(Eh)            E(eV) 
   0   1.0000     -10.188342      -277.2389 
   1   1.0000     -10.168693      -276.7042 
   2   1.0000     -10.167555      -276.6732 
   3   1.0000     -10.165208      -276.6094 
   4   1.0000      -0.785786       -21.3823 
   5   1.0000      -0.669412       -18.2156 
   6   1.0000      -0.637336       -17.3428 
   7   1.0000      -0.541126       -14.7248 
   8   1.0000      -0.457339       -12.4448 
   9   1.0000      -0.429532       -11.6882 
  10   1.0000      -0.414103       -11.2683 
  11   1.0000      -0.384083       -10.4514 
  12   1.0000      -0.374312       -10.1855 
  13   1.0000      -0.338036        -9.1984 
  14   1.0000      -0.334747        -9.1089 
  15   1.0000      -0.325362        -8.8536 
  16   0.0000      -0.044901        -1.2218 
  17   0.0000       0.060803         1.6545 
  18   0.0000       0.099205         2.6995 
  19   0.0000       0.111944         3.0462 
  20   0.0000       0.116687         3.1752 
  21   0.0000       0.125340         3.4107 
  22   0.0000       0.143018         3.8917 
  23   0.0000       0.147625         4.0171 
  24   0.0000       0.165407         4.5010 
  25   0.0000       0.176611         4.8058 
  26   0.0000       0.213053         5.7975 
  27   0.0000       0.247337         6.7304 
  28   0.0000       0.268048         7.2940 
  29   0.0000       0.400132        10.8881 
  30   0.0000       0.423924        11.5356 
  31   0.0000       0.433757        11.8031 
  32   0.0000       0.451725        12.2921 
  33   0.0000       0.481327        13.0976 
  34   0.0000       0.546660        14.8754 
  35   0.0000       0.596019        16.2185 
  36   0.0000       0.612298        16.6615 
  37   0.0000       0.646408        17.5897 
  38   0.0000       0.664720        18.0880 
  39   0.0000       0.666084        18.1251 
  40   0.0000       0.673436        18.3251 
  41   0.0000       0.697891        18.9906 
  42   0.0000       0.702941        19.1280 
  43   0.0000       0.709462        19.3054 
  44   0.0000       0.714290        19.4368 
  45   0.0000       0.724176        19.7058 
  46   0.0000       0.729609        19.8537 
  47   0.0000       0.744493        20.2587 
  48   0.0000       0.754209        20.5231 
  49   0.0000       0.762348        20.7445 
  50   0.0000       0.857746        23.3405 
  51   0.0000       0.943526        25.6746 
  52   0.0000       1.042583        28.3701 
  53   0.0000       1.092257        29.7218 
  54   0.0000       1.409347        38.3503 
  55   0.0000       1.528843        41.6019 
  56   0.0000       1.722494        46.8714 
  57   0.0000       1.745408        47.4950 
  58   0.0000       1.776184        48.3324 
  59   0.0000       1.834694        49.9246 
  60   0.0000       1.922014        52.3007 
  61   0.0000       1.939049        52.7642 
  62   0.0000       1.988682        54.1148 
  63   0.0000       2.045075        55.6493 
  64   0.0000       2.077675        56.5364 
  65   0.0000       2.089927        56.8698 
  66   0.0000       2.142135        58.2905 
  67   0.0000       2.147314        58.4314 
  68   0.0000       2.183151        59.4066 
  69   0.0000       2.427357        66.0517 
  70   0.0000       2.443695        66.4963 
  71   0.0000       2.504264        68.1445 
  72   0.0000       2.677669        72.8631 
  73   0.0000       2.684389        73.0459 

                    ********************************
                    * MULLIKEN POPULATION ANALYSIS *
                    ********************************

------------------------------------------
FOD BASED MULLIKEN REDUCED ORBITAL CHARGES
------------------------------------------
  0 C s       :    -0.000000  s :    -0.000000
      pz      :     0.000000  p :     0.000000
      px      :     0.000000
      py      :     0.000000
      dz2     :     0.000000  d :     0.000000
      dxz     :     0.000000
      dyz     :     0.000000
      dx2y2   :     0.000000
      dxy     :     0.000000
  1 C s       :    -0.000000  s :    -0.000000
      pz      :     0.000000  p :     0.000000
      px      :     0.000000
      py      :     0.000000
      dz2     :     0.000000  d :     0.000000
      dxz     :     0.000000
      dyz     :     0.000000
      dx2y2   :     0.000000
      dxy     :     0.000000
  2 C s       :    -0.000000  s :    -0.000000
      pz      :     0.000000  p :     0.000000
      px      :     0.000000
      py      :     0.000000
      dz2     :     0.000000  d :     0.000000
      dxz     :     0.000000
      dyz     :     0.000000
      dx2y2   :     0.000000
      dxy     :     0.000000
  3 C s       :    -0.000000  s :    -0.000000
      pz      :     0.000000  p :     0.000000
      px      :     0.000000
      py      :     0.000000
      dz2     :     0.000000  d :     0.000000
      dxz     :     0.000000
      dyz     :     0.000000
      dx2y2   :     0.000000
      dxy     :     0.000000
  4 H s       :     0.000000  s :     0.000000
  5 H s       :     0.000000  s :     0.000000
  6 H s       :     0.000000  s :     0.000000
  7 H s       :     0.000000  s :     0.000000
  8 H s       :     0.000000  s :     0.000000
  9 H s       :     0.000000  s :     0.000000
 10 H s       :     0.000000  s :     0.000000
 11 H s       :     0.000000  s :     0.000000
 12 H s       :     0.000000  s :     0.000000


                     *******************************
                     * LOEWDIN POPULATION ANALYSIS *
                     *******************************

-------------------------------------------
LOEWDIN ATOMIC CHARGES AND SPIN POPULATIONS
-------------------------------------------
   0 C :   -0.160246   -0.012654
   1 C :   -0.221230    0.978257
   2 C :   -0.305874    0.049921
   3 C :   -0.309436    0.008197
   4 H :    0.113551    0.018722
   5 H :    0.111682   -0.025727
   6 H :    0.112964   -0.025961
   7 H :    0.108862    0.000144
   8 H :    0.109824    0.000027
   9 H :    0.108764    0.008574
  10 H :    0.109202   -0.000231
  11 H :    0.112431    0.000563
  12 H :    0.109507    0.000168

----------------------------------------------------
LOEWDIN REDUCED ORBITAL CHARGES AND SPIN POPULATIONS
----------------------------------------------------
CHARGE
  0 C s       :     2.876673  s :     2.876673
      pz      :     1.072699  p :     3.172333
      px      :     1.043082
      py      :     1.056552
      dz2     :     0.029147  d :     0.111240
      dxz     :     0.011687
      dyz     :     0.017355
      dx2y2   :     0.029004
      dxy     :     0.024047
  1 C s       :     3.018056  s :     3.018056
      pz      :     1.074504  p :     3.146235
      px      :     1.007208
      py      :     1.064523
      dz2     :     0.017275  d :     0.056938
      dxz     :     0.004833
      dyz     :     0.015262
      dx2y2   :     0.012128
      dxy     :     0.007440
  2 C s       :     2.963853  s :     2.963853
      pz      :     1.114894  p :     3.269540
      px      :     1.048114
      py      :     1.106531
      dz2     :     0.017106  d :     0.072482
      dxz     :     0.011845
      dyz     :     0.011773
      dx2y2   :     0.015488
      dxy     :     0.016269
  3 C s       :     2.956768  s :     2.956768
      pz      :     1.108282  p :     3.280023
      px      :     1.100013
      py      :     1.071728
      dz2     :     0.021866  d :     0.072645
      dxz     :     0.004615
      dyz     :     0.013391
      dx2y2   :     0.021999
      dxy     :     0.010774
  4 H s       :     0.886449  s :     0.886449
  5 H s       :     0.888318  s :     0.888318
  6 H s       :     0.887036  s :     0.887036
  7 H s       :     0.891138  s :     0.891138
  8 H s       :     0.890176  s :     0.890176
  9 H s       :     0.891236  s :     0.891236
 10 H s       :     0.890798  s :     0.890798
 11 H s       :     0.887569  s :     0.887569
 12 H s       :     0.890493  s :     0.890493

SPIN
  0 C s       :    -0.005125  s :    -0.005125
      pz      :    -0.007212  p :    -0.023998
      px      :    -0.004144
      py      :    -0.012642
      dz2     :     0.004083  d :     0.016469
      dxz     :     0.000452
      dyz     :     0.001459
      dx2y2   :     0.005204
      dxy     :     0.005271
  1 C s       :     0.040626  s :     0.040626
      pz      :     0.150048  p :     0.941474
      px      :     0.765711
      py      :     0.025716
      dz2     :    -0.000764  d :    -0.003844
      dxz     :    -0.001053
      dyz     :    -0.000509
      dx2y2   :    -0.001399
      dxy     :    -0.000119
  2 C s       :     0.016767  s :     0.016767
      pz      :     0.001648  p :     0.032671
      px      :     0.028719
      py      :     0.002305
      dz2     :    -0.000056  d :     0.000482
      dxz     :    -0.000147
      dyz     :     0.000405
      dx2y2   :     0.000097
      dxy     :     0.000184
  3 C s       :     0.001755  s :     0.001755
      pz      :     0.001848  p :     0.006606
      px      :     0.000581
      py      :     0.004177
      dz2     :     0.000128  d :    -0.000164
      dxz     :    -0.000005
      dyz     :    -0.000029
      dx2y2   :    -0.000223
      dxy     :    -0.000036
  4 H s       :     0.018722  s :     0.018722
  5 H s       :    -0.025727  s :    -0.025727
  6 H s       :    -0.025961  s :    -0.025961
  7 H s       :     0.000144  s :     0.000144
  8 H s       :     0.000027  s :     0.000027
  9 H s       :     0.008574  s :     0.008574
 10 H s       :    -0.000231  s :    -0.000231
 11 H s       :     0.000563  s :     0.000563
 12 H s       :     0.000168  s :     0.000168


                      *****************************
                      * MAYER POPULATION ANALYSIS *
                      *****************************

  NA   - Mulliken gross atomic population
  ZA   - Total nuclear charge
  QA   - Mulliken gross atomic charge
  VA   - Mayer's total valence
  BVA  - Mayer's bonded valence
  FA   - Mayer's free valence

  ATOM       NA         ZA         QA         VA         BVA        FA
  0 C      6.0965     6.0000    -0.0965     4.1869     4.1837     0.0032
  1 C      6.2366     6.0000    -0.2366     3.8890     2.9962     0.8928
  2 C      6.2290     6.0000    -0.2290     3.9367     3.9348     0.0019
  3 C      6.2456     6.0000    -0.2456     3.9552     3.9551     0.0001
  4 H      0.9289     1.0000     0.0711     0.9378     0.9373     0.0005
  5 H      0.8980     1.0000     0.1020     0.9493     0.9465     0.0028
  6 H      0.9001     1.0000     0.0999     0.9556     0.9527     0.0028
  7 H      0.9151     1.0000     0.0849     0.9647     0.9647     0.0000
  8 H      0.9101     1.0000     0.0899     0.9581     0.9580     0.0000
  9 H      0.9121     1.0000     0.0879     0.9572     0.9569     0.0002
 10 H      0.9129     1.0000     0.0871     0.9616     0.9616     0.0000
 11 H      0.9017     1.0000     0.0983     0.9543     0.9543     0.0000
 12 H      0.9134     1.0000     0.0866     0.9581     0.9581     0.0000

  Mayer bond orders larger than 0.100000
B(  0-C ,  1-C ) :   1.0795 B(  0-C ,  2-C ) :   1.0725 B(  0-C ,  3-C ) :   1.0915 
B(  0-C ,  4-H ) :   0.9124 B(  1-C ,  5-H ) :   0.9414 B(  1-C ,  6-H ) :   0.9404 
B(  2-C ,  7-H ) :   0.9587 B(  2-C ,  8-H ) :   0.9603 B(  2-C ,  9-H ) :   0.9541 
B(  3-C , 10-H ) :   0.9560 B(  3-C , 11-H ) :   0.9601 B(  3-C , 12-H ) :   0.9582 


-------
TIMINGS
-------

Total SCF time: 0 days 0 hours 2 min 52 sec 

Total time                  ....     172.967 sec
Sum of individual times     ....     128.249 sec  ( 74.1%)

Fock matrix formation       ....     107.837 sec  ( 62.3%)
  XC integration            ....      48.894 sec  ( 45.3% of F)
    Basis function eval.    ....       0.474 sec  (  1.0% of XC)
    Density eval.           ....       0.332 sec  (  0.7% of XC)
    XC-Functional eval.     ....       0.220 sec  (  0.4% of XC)
    XC-Potential eval.      ....       0.516 sec  (  1.1% of XC)
Diagonalization             ....       0.817 sec  (  0.5%)
Density matrix formation    ....       8.660 sec  (  5.0%)
Population analysis         ....       7.185 sec  (  4.2%)
Initial guess               ....       0.003 sec  (  0.0%)
Orbital Transformation      ....       0.000 sec  (  0.0%)
Orbital Orthonormalization  ....       0.001 sec  (  0.0%)
DIIS solution               ....       2.113 sec  (  1.2%)
Grid generation             ....       1.634 sec  (  0.9%)


-------------------------------------------------------------------------------
                          DFT DISPERSION CORRECTION                            
                                                                               
                              DFTD3 V3.1  Rev 1                                
                          USING Becke-Johnson damping                          
-------------------------------------------------------------------------------
The B3LYP functional is recognized
Active option DFTDOPT                   ...         4   

molecular C6(AA) [au] = 1132.636530 


            DFT-D V3
 parameters
 s6 scaling factor         :     1.0000 
 a1 scaling factor         :     0.3981 
 s8 scaling factor         :     1.9889 
 a2 scaling factor         :     4.4211 
 ad hoc parameters k1-k3   :    16.0000     1.3333    -4.0000 

 Edisp/kcal,au: -9.029268767954  -0.014389054155 
 E6   /kcal   :  -4.469197107 
 E8   /kcal   :  -4.560071661 
 % E8         :  50.503222112 

-------------------------   ----------------
Dispersion correction           -0.014389054
-------------------------   ----------------


-------------------------   --------------------
FINAL SINGLE POINT ENERGY      -157.545004337253
-------------------------   --------------------

                                *** OPTIMIZATION RUN DONE ***

                            ***************************************
                            *     ORCA property calculations      *
                            ***************************************

                                    ---------------------
                                    Active property flags
                                    ---------------------
   (+) Dipole Moment


------------------------------------------------------------------------------
                       ORCA ELECTRIC PROPERTIES CALCULATION
------------------------------------------------------------------------------

Dipole Moment Calculation                       ... on
Quadrupole Moment Calculation                   ... off
Polarizability Calculation                      ... off
GBWName                                         ... orca0.gbw
Electron density file                           ... orca0.scfp
The origin for moment calculation is the CENTER OF MASS  = ( 0.158517, -0.121887 -0.127994)

-------------
DIPOLE MOMENT
-------------
                                X             Y             Z
Electronic contribution:      0.69505       1.04708      -0.33424
Nuclear contribution   :     -0.77106      -1.09377       0.28807
                        -----------------------------------------
Total Dipole Moment    :     -0.07602      -0.04669      -0.04618
                        -----------------------------------------
Magnitude (a.u.)       :      0.10045
Magnitude (Debye)      :      0.25533



--------------------
Rotational spectrum 
--------------------
 
Rotational constants in cm-1:     0.274732     0.261611     0.155015 
Rotational constants in MHz :  8236.273011  7842.910568  4647.243550 

 Dipole components along the rotational axes: 
x,y,z [a.u.] :    -0.038309    -0.089588    -0.024443 
x,y,z [Debye]:    -0.097373    -0.227715    -0.062130 

 

Timings for individual modules:

Sum of individual times         ...     8168.374 sec (= 136.140 min)
GTO integral calculation        ...      188.843 sec (=   3.147 min)   2.3 %
SCF iterations                  ...     7777.087 sec (= 129.618 min)  95.2 %
SCF Gradient evaluation         ...      112.656 sec (=   1.878 min)   1.4 %
Geometry relaxation             ...       89.788 sec (=   1.496 min)   1.1 %
                             ****ORCA TERMINATED NORMALLY****
TOTAL RUN TIME: 0 days 2 hours 21 minutes 31 seconds 2 msec
