
                                 *****************
                                 * O   R   C   A *
                                 *****************

           --- An Ab Initio, DFT and Semiempirical electronic structure package ---

                  #######################################################
                  #                        -***-                        #
                  #          Department of theory and spectroscopy      #
                  #               Directorship: Frank Neese             #
                  #        Max Planck Institute fuer Kohlenforschung    #
                  #                Kaiser Wilhelm Platz 1               #
                  #                 D-45470 Muelheim/Ruhr               #
                  #                      Germany                        #
                  #                                                     #
                  #                  All rights reserved                #
                  #                        -***-                        #
                  #######################################################


                         Program Version 4.2.1 -  RELEASE  -


 With contributions from (in alphabetic order):
   Daniel Aravena         : Magnetic Suceptibility
   Michael Atanasov       : Ab Initio Ligand Field Theory (pilot matlab implementation)
   Alexander A. Auer      : GIAO ZORA, VPT2
   Ute Becker             : Parallelization
   Giovanni Bistoni       : ED, misc. LED, open-shell LED, HFLD
   Martin Brehm           : Molecular dynamics
   Dmytro Bykov           : SCF Hessian
   Vijay G. Chilkuri      : MRCI spin determinant printing, contributions to CSF-ICE
   Dipayan Datta          : RHF DLPNO-CCSD density
   Achintya Kumar Dutta   : EOM-CC, STEOM-CC
   Dmitry Ganyushin       : Spin-Orbit,Spin-Spin,Magnetic field MRCI
   Miquel Garcia          : C-PCM Hessian, Gaussian charge scheme
   Yang Guo               : DLPNO-NEVPT2, CIM, IAO-localization
   Andreas Hansen         : Spin unrestricted coupled pair/coupled cluster methods
   Benjamin Helmich-Paris : CASSCF linear response (MC-RPA)
   Lee Huntington         : MR-EOM, pCC
   Robert Izsak           : Overlap fitted RIJCOSX, COSX-SCS-MP3, EOM
   Christian Kollmar      : KDIIS, OOCD, Brueckner-CCSD(T), CCSD density
   Simone Kossmann        : Meta GGA functionals, TD-DFT gradient, OOMP2, MP2 Hessian
   Martin Krupicka        : AUTO-CI
   Lucas Lang             : DCDCAS
   Dagmar Lenk            : GEPOL surface, SMD
   Dimitrios Liakos       : Extrapolation schemes; Compound Job, initial MDCI parallelization
   Dimitrios Manganas     : Further ROCIS development; embedding schemes
   Dimitrios Pantazis     : SARC Basis sets
   Taras Petrenko         : DFT Hessian,TD-DFT gradient, ASA, ECA, R-Raman, ABS, FL, XAS/XES, NRVS
   Peter Pinski           : DLPNO-MP2, DLPNO-MP2 Gradient
   Christoph Reimann      : Effective Core Potentials
   Marius Retegan         : Local ZFS, SOC
   Christoph Riplinger    : Optimizer, TS searches, QM/MM, DLPNO-CCSD(T), (RO)-DLPNO pert. Triples
   Tobias Risthaus        : Range-separated hybrids, TD-DFT gradient, RPA, STAB
   Michael Roemelt        : Original ROCIS implementation
   Masaaki Saitow         : Open-shell DLPNO-CCSD energy and density
   Barbara Sandhoefer     : DKH picture change effects
   Avijit Sen             : IP-ROCIS
   Kantharuban Sivalingam : CASSCF convergence, NEVPT2, FIC-MRCI
   Bernardo de Souza      : ESD, SOC TD-DFT
   Georgi Stoychev        : AutoAux, RI-MP2 NMR
   Willem Van den Heuvel  : Paramagnetic NMR
   Boris Wezisla          : Elementary symmetry handling
   Frank Wennmohs         : Technical directorship


 We gratefully acknowledge several colleagues who have allowed us to
 interface, adapt or use parts of their codes:
   Stefan Grimme, W. Hujo, H. Kruse,             : VdW corrections, initial TS optimization,
                  C. Bannwarth                     DFT functionals, gCP, sTDA/sTD-DF
   Ed Valeev, F. Pavosevic, A. Kumar             : LibInt (2-el integral package), F12 methods
   Garnet Chan, S. Sharma, J. Yang, R. Olivares  : DMRG
   Ulf Ekstrom                                   : XCFun DFT Library
   Mihaly Kallay                                 : mrcc  (arbitrary order and MRCC methods)
   Andreas Klamt, Michael Diedenhofen            : otool_cosmo (COSMO solvation model)
   Jiri Pittner, Ondrej Demel                    : Mk-CCSD
   Frank Weinhold                                : gennbo (NPA and NBO analysis)
   Christopher J. Cramer and Donald G. Truhlar   : smd solvation model
   Lars Goerigk                                  : TD-DFT with DH, B97 family of functionals
   V. Asgeirsson, H. Jonsson                     : NEB implementation
   FAccTs GmbH                                   : IRC, NEB, NEB-TS, Multilevel, MM, QM/MM, CI optimization
   S Lehtola, MJT Oliveira, MAL Marques          : LibXC Library


 Your calculation uses the libint2 library for the computation of 2-el integrals
 For citations please refer to: http://libint.valeyev.net

 Your ORCA version has been built with support for libXC version: 4.2.3
 For citations please refer to: https://tddft.org/programs/libxc/

 This ORCA versions uses:
   CBLAS   interface :  Fast vector & matrix operations
   LAPACKE interface :  Fast linear algebra routines
   SCALAPACK package :  Parallel linear algebra routines


Your calculation utilizes the atom-pairwise dispersion correction
with the Becke-Johnson damping scheme (D3BJ)
Cite in your paper:
S.Grimme, S.Ehrlich, L.Goerigk, J Comput Chem, (2011), 32, 1456–1465 
S.Grimme, J.Antony, S.Ehrlich and H.Krieg, J.Chem.Phys., 132, (2010), 154104 
   

----- Orbital basis set information -----
Your calculation utilizes the basis: def2-SV(P)
   F. Weigend and R. Ahlrichs, Phys. Chem. Chem. Phys. 7, 3297 (2005).

----- AuxJ basis set information -----
Your calculation utilizes the auxiliary basis: def2/J
   F. Weigend, Phys. Chem. Chem. Phys. 8, 1057 (2006).

================================================================================
                                        WARNINGS
                       Please study these warnings very carefully!
================================================================================


WARNING: Geometry Optimization
  ===> : Switching off AutoStart
         For restart on a previous wavefunction, please use MOREAD

INFO   : the flag for use of LIBINT has been found!

================================================================================
                                       INPUT FILE
================================================================================
NAME = orca7.inp
|  1> ! UKS B3LYP def2-SV(P) def2/J D3BJ Opt
|  2> %scf Convergence VeryTight
|  3> SmearTemp 2000
|  4> maxiter 500
|  5> end
|  6> *xyz 0 2
|  7> C 0.024603 0.214771 -0.372798
|  8> C -1.024911 0.970544 0.382899
|  9> C 1.381332 0.232782 0.271012
| 10> C -0.37258 -1.246405 -0.453696
| 11> H 0.139795 0.657493 -1.39354
| 12> H -0.989087 0.659953 1.434507
| 13> H -2.012992 0.658537 -0.029407
| 14> H 1.743671 1.243255 0.527407
| 15> H 2.089131 -0.181837 -0.491799
| 16> H 1.45545 -0.419731 1.171073
| 17> H -0.035461 -1.721106 -1.394692
| 18> H -1.47903 -1.373403 -0.426595
| 19> H 0.012885 -1.757647 0.455316
| 20> *
| 21> 
| 22>                          ****END OF INPUT****
================================================================================

                       *****************************
                       * Geometry Optimization Run *
                       *****************************

Geometry optimization settings:
Update method            Update   .... BFGS
Choice of coordinates    CoordSys .... Z-matrix Internals
Initial Hessian          InHess   .... Almoef's Model

Convergence Tolerances:
Energy Change            TolE     ....  5.0000e-06 Eh
Max. Gradient            TolMAXG  ....  3.0000e-04 Eh/bohr
RMS Gradient             TolRMSG  ....  1.0000e-04 Eh/bohr
Max. Displacement        TolMAXD  ....  4.0000e-03 bohr
RMS Displacement         TolRMSD  ....  2.0000e-03 bohr
Strict Convergence                ....  False
------------------------------------------------------------------------------
                        ORCA OPTIMIZATION COORDINATE SETUP
------------------------------------------------------------------------------

The optimization will be done in new redundant internal coordinates
Making redundant internal coordinates   ...  (new redundants) done
Evaluating the initial hessian          ...  (Almloef) done
Evaluating the coordinates              ...  done
Calculating the B-matrix                .... done
Calculating the G-matrix                .... done
Diagonalizing the G-matrix              .... done
The first mode is                       ....   24
The number of degrees of freedom        ....   33

    -----------------------------------------------------------------
                    Redundant Internal Coordinates


    -----------------------------------------------------------------
         Definition                    Initial Value    Approx d2E/dq
    -----------------------------------------------------------------
      1. B(C   1,C   0)                  1.4979         0.420307   
      2. B(C   2,C   0)                  1.5018         0.414287   
      3. B(C   3,C   0)                  1.5164         0.392777   
      4. B(H   4,C   0)                  1.1186         0.324228   
      5. B(H   5,C   1)                  1.0971         0.350828   
      6. B(H   6,C   1)                  1.1152         0.328272   
      7. B(H   7,C   2)                  1.1037         0.342465   
      8. B(H   8,C   2)                  1.1202         0.322327   
      9. B(H   9,C   2)                  1.1142         0.329504   
     10. B(H  10,C   3)                  1.1066         0.338853   
     11. B(H  11,C   3)                  1.1140         0.329657   
     12. B(H  12,C   3)                  1.1119         0.332301   
     13. A(C   1,C   0,H   4)          109.4409         0.325009   
     14. A(C   2,C   0,H   4)          107.0624         0.324239   
     15. A(C   1,C   0,C   2)          114.2445         0.377444   
     16. A(C   1,C   0,C   3)          109.2434         0.373984   
     17. A(C   2,C   0,C   3)          105.7268         0.373055   
     18. A(C   3,C   0,H   4)          111.0807         0.321418   
     19. A(H   5,C   1,H   6)          107.7048         0.285492   
     20. A(C   0,C   1,H   6)          107.0439         0.325672   
     21. A(C   0,C   1,H   5)          108.5337         0.329258   
     22. A(H   7,C   2,H   9)          109.0679         0.284588   
     23. A(C   0,C   2,H   9)          113.5390         0.325100   
     24. A(H   7,C   2,H   8)          106.8364         0.283616   
     25. A(C   0,C   2,H   8)          105.9295         0.323927   
     26. A(H   8,C   2,H   9)          106.9364         0.281923   
     27. A(C   0,C   2,H   7)          114.0259         0.327171   
     28. A(H  11,C   3,H  12)          105.7841         0.283279   
     29. A(H  10,C   3,H  12)          113.1016         0.284493   
     30. A(C   0,C   3,H  12)          107.9778         0.322715   
     31. A(H  10,C   3,H  11)          105.9241         0.284140   
     32. A(C   0,C   3,H  11)          111.6354         0.322293   
     33. A(C   0,C   3,H  10)          112.2685         0.323750   
     34. D(H   6,C   1,C   0,C   3)    -46.7923         0.013062   
     35. D(H   6,C   1,C   0,H   4)     75.0251         0.013062   
     36. D(H   6,C   1,C   0,C   2)   -164.9612         0.013062   
     37. D(H   5,C   1,C   0,H   4)   -168.9820         0.013062   
     38. D(H   5,C   1,C   0,C   2)    -48.9684         0.013062   
     39. D(H   5,C   1,C   0,C   3)     69.2005         0.013062   
     40. D(H   7,C   2,C   0,C   1)    -51.6866         0.013588   
     41. D(H   9,C   2,C   0,C   1)     74.0690         0.013588   
     42. D(H   8,C   2,C   0,H   4)    -47.5445         0.013588   
     43. D(H   8,C   2,C   0,C   1)   -168.8807         0.013588   
     44. D(H   7,C   2,C   0,H   4)     69.6496         0.013588   
     45. D(H   7,C   2,C   0,C   3)   -171.8411         0.013588   
     46. D(H   9,C   2,C   0,C   3)    -46.0856         0.013588   
     47. D(H   9,C   2,C   0,H   4)   -164.5949         0.013588   
     48. D(H   8,C   2,C   0,C   3)     70.9647         0.013588   
     49. D(H  12,C   3,C   0,H   4)    151.6844         0.012258   
     50. D(H  12,C   3,C   0,C   1)    -87.4929         0.012258   
     51. D(H  11,C   3,C   0,H   4)    -92.4439         0.012258   
     52. D(H  11,C   3,C   0,C   2)    151.7558         0.012258   
     53. D(H  11,C   3,C   0,C   1)     28.3788         0.012258   
     54. D(H  10,C   3,C   0,H   4)     26.3307         0.012258   
     55. D(H  12,C   3,C   0,C   2)     35.8842         0.012258   
     56. D(H  10,C   3,C   0,C   2)    -89.4696         0.012258   
     57. D(H  10,C   3,C   0,C   1)    147.1534         0.012258   
    -----------------------------------------------------------------

Number of atoms                         .... 13
Number of degrees of freedom            .... 57

         *************************************************************
         *                GEOMETRY OPTIMIZATION CYCLE   1            *
         *************************************************************
---------------------------------
CARTESIAN COORDINATES (ANGSTROEM)
---------------------------------
  C      0.024603    0.214771   -0.372798
  C     -1.024911    0.970544    0.382899
  C      1.381332    0.232782    0.271012
  C     -0.372580   -1.246405   -0.453696
  H      0.139795    0.657493   -1.393540
  H     -0.989087    0.659953    1.434507
  H     -2.012992    0.658537   -0.029407
  H      1.743671    1.243255    0.527407
  H      2.089131   -0.181837   -0.491799
  H      1.455450   -0.419731    1.171073
  H     -0.035461   -1.721106   -1.394692
  H     -1.479030   -1.373403   -0.426595
  H      0.012885   -1.757647    0.455316

----------------------------
CARTESIAN COORDINATES (A.U.)
----------------------------
  NO LB      ZA    FRAG     MASS         X           Y           Z
   0 C     6.0000    0    12.011    0.046493    0.405858   -0.704486
   1 C     6.0000    0    12.011   -1.936801    1.834062    0.723574
   2 C     6.0000    0    12.011    2.610339    0.439894    0.512138
   3 C     6.0000    0    12.011   -0.704074   -2.355364   -0.857361
   4 H     1.0000    0     1.008    0.264174    1.242482   -2.633409
   5 H     1.0000    0     1.008   -1.869104    1.247130    2.710825
   6 H     1.0000    0     1.008   -3.804004    1.244455   -0.055571
   7 H     1.0000    0     1.008    3.295061    2.349411    0.996655
   8 H     1.0000    0     1.008    3.947885   -0.343622   -0.929365
   9 H     1.0000    0     1.008    2.750402   -0.793177    2.213007
  10 H     1.0000    0     1.008   -0.067012   -3.252419   -2.635586
  11 H     1.0000    0     1.008   -2.794962   -2.595356   -0.806148
  12 H     1.0000    0     1.008    0.024349   -3.321471    0.860423

--------------------------------
INTERNAL COORDINATES (ANGSTROEM)
--------------------------------
 C      0   0   0     0.000000000000     0.00000000     0.00000000
 C      1   0   0     1.497915357934     0.00000000     0.00000000
 C      1   2   0     1.501841966274   114.24447573     0.00000000
 C      1   2   3     1.516355540389   109.24338563   118.16890655
 H      1   2   3     1.118564346255   109.44093944   239.98636391
 H      2   1   3     1.097100503109   108.53367906   311.03164031
 H      2   1   3     1.115189969577   107.04393018   195.03877372
 H      3   1   2     1.103668261152   114.02591321   308.31343952
 H      3   1   2     1.120164702748   105.92953436   191.11927334
 H      3   1   2     1.114170766451   113.53897630    74.06895676
 H      4   1   2     1.106554893161   112.26853478   147.15335267
 H      4   1   2     1.114044235524   111.63535474    28.37877469
 H      4   1   2     1.111869805748   107.97776156   272.50710023

---------------------------
INTERNAL COORDINATES (A.U.)
---------------------------
 C      0   0   0     0.000000000000     0.00000000     0.00000000
 C      1   0   0     2.830649798290     0.00000000     0.00000000
 C      1   2   0     2.838070012688   114.24447573     0.00000000
 C      1   2   3     2.865496692990   109.24338563   118.16890655
 H      1   2   3     2.113780277590   109.44093944   239.98636391
 H      2   1   3     2.073219492262   108.53367906   311.03164031
 H      2   1   3     2.107403629797   107.04393018   195.03877372
 H      3   1   2     2.085630756279   114.02591321   308.31343952
 H      3   1   2     2.116804513079   105.92953436   191.11927334
 H      3   1   2     2.105477615014   113.53897630    74.06895676
 H      4   1   2     2.091085700224   112.26853478   147.15335267
 H      4   1   2     2.105238506215   111.63535474    28.37877469
 H      4   1   2     2.101129429439   107.97776156   272.50710023

---------------------
BASIS SET INFORMATION
---------------------
There are 2 groups of distinct atoms

 Group   1 Type C   : 7s4p1d contracted to 3s2p1d pattern {511/31/1}
 Group   2 Type H   : 4s contracted to 2s pattern {31}

Atom   0C    basis set group =>   1
Atom   1C    basis set group =>   1
Atom   2C    basis set group =>   1
Atom   3C    basis set group =>   1
Atom   4H    basis set group =>   2
Atom   5H    basis set group =>   2
Atom   6H    basis set group =>   2
Atom   7H    basis set group =>   2
Atom   8H    basis set group =>   2
Atom   9H    basis set group =>   2
Atom  10H    basis set group =>   2
Atom  11H    basis set group =>   2
Atom  12H    basis set group =>   2
---------------------------------
AUXILIARY/J BASIS SET INFORMATION
---------------------------------
There are 2 groups of distinct atoms

 Group   1 Type C   : 12s5p4d2f1g contracted to 6s4p3d1f1g pattern {711111/2111/211/2/1}
 Group   2 Type H   : 5s2p1d contracted to 3s1p1d pattern {311/2/1}

Atom   0C    basis set group =>   1
Atom   1C    basis set group =>   1
Atom   2C    basis set group =>   1
Atom   3C    basis set group =>   1
Atom   4H    basis set group =>   2
Atom   5H    basis set group =>   2
Atom   6H    basis set group =>   2
Atom   7H    basis set group =>   2
Atom   8H    basis set group =>   2
Atom   9H    basis set group =>   2
Atom  10H    basis set group =>   2
Atom  11H    basis set group =>   2
Atom  12H    basis set group =>   2
------------------------------------------------------------------------------
                           ORCA GTO INTEGRAL CALCULATION
------------------------------------------------------------------------------

                         BASIS SET STATISTICS AND STARTUP INFO

 # of primitive gaussian shells          ...   84
 # of primitive gaussian functions       ...  132
 # of contracted shells                  ...   42
 # of contracted basis functions         ...   74
 Highest angular momentum                ...    2
 Maximum contraction depth               ...    5
 Integral package used                   ... LIBINT
 Integral threshhold            Thresh   ...  1.000e-12
 Primitive cut-off              TCut     ...  1.000e-14


------------------------------ INTEGRAL EVALUATION ----------------------------


 * One electron integrals 
 Pre-screening matrix                    ... done
 Shell pair data                         ... done (   0.000 sec)

-------------------------------------------------------------------------------
                                 ORCA SCF
-------------------------------------------------------------------------------

------------
SCF SETTINGS
------------
Hamiltonian:
 Density Functional     Method          .... DFT(GTOs)
 Exchange Functional    Exchange        .... B88
   X-Alpha parameter    XAlpha          ....  0.666667
   Becke's b parameter  XBeta           ....  0.004200
 Correlation Functional Correlation     .... LYP
 LDA part of GGA corr.  LDAOpt          .... VWN-5
 Gradients option       PostSCFGGA      .... off
 Hybrid DFT is turned on
   Fraction HF Exchange ScalHFX         ....  0.200000
   Scaling of DF-GGA-X  ScalDFX         ....  0.720000
   Scaling of DF-GGA-C  ScalDFC         ....  0.810000
   Scaling of DF-LDA-C  ScalLDAC        ....  1.000000
   Perturbative correction              ....  0.000000
   Density functional embedding theory  .... OFF
   NL short-range parameter             ....  4.800000


General Settings:
 Integral files         IntName         .... orca7
 Hartree-Fock type      HFTyp           .... UHF
 Total Charge           Charge          ....    0
 Multiplicity           Mult            ....    2
 Number of Electrons    NEL             ....   33
 Basis Dimension        Dim             ....   74
 Nuclear Repulsion      ENuc            ....    127.8959926805 Eh

Convergence Acceleration:
 DIIS                   CNVDIIS         .... on
   Start iteration      DIISMaxIt       ....    12
   Startup error        DIISStart       ....  0.200000
   # of expansion vecs  DIISMaxEq       ....     5
   Bias factor          DIISBfac        ....   1.050
   Max. coefficient     DIISMaxC        ....  10.000
 Newton-Raphson         CNVNR           .... off
 SOSCF                  CNVSOSCF        .... off
 Level Shifting         CNVShift        .... on
   Level shift para.    LevelShift      ....    0.2500
   Turn off err/grad.   ShiftErr        ....    0.0010
 Zerner damping         CNVZerner       .... off
 Static damping         CNVDamp         .... on
   Fraction old density DampFac         ....    0.7000
   Max. Damping (<1)    DampMax         ....    0.9800
   Min. Damping (>=0)   DampMin         ....    0.0000
   Turn off err/grad.   DampErr         ....    0.1000
 Fernandez-Rico         CNVRico         .... off

SCF Procedure:
 Maximum # iterations   MaxIter         ....   500
 SCF integral mode      SCFMode         .... Direct
   Integral package                     .... LIBINT
 Reset frequency        DirectResetFreq ....    20
 Integral Threshold     Thresh          ....  1.000e-12 Eh
 Primitive CutOff       TCut            ....  1.000e-14 Eh

Convergence Tolerance:
 Convergence Check Mode ConvCheckMode   .... Total+1el-Energy
 Convergence forced     ConvForced      .... 0
 Energy Change          TolE            ....  1.000e-09 Eh
 1-El. energy change                    ....  1.000e-06 Eh
 DIIS Error             TolErr          ....  1.000e-08


Diagonalization of the overlap matrix:
Smallest eigenvalue                        ... 1.958e-03
Time for diagonalization                   ...    0.001 sec
Threshold for overlap eigenvalues          ... 1.000e-08
Number of eigenvalues below threshold      ... 0
Time for construction of square roots      ...    4.534 sec
Total time needed                          ...    4.535 sec

-------------------
DFT GRID GENERATION
-------------------

General Integration Accuracy     IntAcc      ...  4.340
Radial Grid Type                 RadialGrid  ... Gauss-Chebyshev
Angular Grid (max. acc.)         AngularGrid ... Lebedev-110
Angular grid pruning method      GridPruning ... 3 (G Style)
Weight generation scheme         WeightScheme... Becke
Basis function cutoff            BFCut       ...    1.0000e-12
Integration weight cutoff        WCut        ...    1.0000e-14
Grids for H and He will be reduced by one unit

# of grid points (after initial pruning)     ...  13770 (   0.0 sec)
# of grid points (after weights+screening)   ...  12869 (   0.0 sec)
nearest neighbour list constructed           ...    0.0 sec
Grid point re-assignment to atoms done       ...    0.0 sec
Grid point division into batches done        ...    0.0 sec
Reduced shell lists constructed in    0.1 sec

Total number of grid points                  ...    12869
Total number of batches                      ...      208
Average number of points per batch           ...       61
Average number of grid points per atom       ...      990
Average number of shells per batch           ...    37.46 (89.20%)
Average number of basis functions per batch  ...    66.77 (90.22%)
Average number of large shells per batch     ...    33.16 (88.52%)
Average number of large basis fcns per batch ...    58.68 (87.90%)
Maximum spatial batch extension              ...  20.98, 20.83, 23.65 au
Average spatial batch extension              ...   4.06,  4.01,  3.82 au

Time for grid setup =    1.216 sec

------------------------------
INITIAL GUESS: MODEL POTENTIAL
------------------------------
Loading Hartree-Fock densities                     ... done
Calculating cut-offs                               ... done
Setting up the integral package                    ... done
Initializing the effective Hamiltonian             ... done
Starting the Coulomb interaction                   ... done (   0.0 sec)
Reading the grid                                   ... done
Mapping shells                                     ... done
Starting the XC term evaluation                    ... done (   0.1 sec)
  promolecular density results
     # of electrons  =     32.999710554
     EX              =    -23.191461703
     EC              =     -1.033174174
     EX+EC           =    -24.224635877
Transforming the Hamiltonian                       ... done (   0.2 sec)
Diagonalizing the Hamiltonian                      ... done (   0.0 sec)
Back transforming the eigenvectors                 ... done (   0.0 sec)
Now organizing SCF variables                       ... done
                      ------------------
                      INITIAL GUESS DONE (   1.6 sec)
                      ------------------
--------------
SCF ITERATIONS
--------------
ITER       Energy         Delta-E        Max-DP      RMS-DP      [F,P]     Damp
               ***  Starting incremental Fock matrix formation  ***
  0   -157.3591349402   0.000000000000 0.04272180  0.00208421  0.1715795 0.7000
  1   -157.4276829036  -0.068547963424 0.02615904  0.00149206  0.0875985 0.7000
                               ***Turning on DIIS***
  2   -157.4551845792  -0.027501675562 0.03735369  0.00246451  0.0315515 0.0000
  3   -157.4929818761  -0.037797296901 0.01792881  0.00103775  0.0489620 0.0000
  4   -157.5051901203  -0.012208244172 0.00658520  0.00031988  0.0090621 0.0000
  5   -157.5058155003  -0.000625380059 0.00192554  0.00011200  0.0019317 0.0000
  6   -157.5058676117  -0.000052111353 0.00171153  0.00007442  0.0006329 0.0000
  7   -157.5058789483  -0.000011336582 0.00041682  0.00001436  0.0001902 0.0000
  8   -157.5058798074  -0.000000859121 0.00012401  0.00000454  0.0001050 0.0000
  9   -157.5058799101  -0.000000102677 0.00006160  0.00000195  0.0000465 0.0000
 10   -157.5058799319  -0.000000021877 0.00002094  0.00000075  0.0000085 0.0000
 11   -157.5058799358  -0.000000003896 0.00001050  0.00000044  0.0000033 0.0000
 12   -157.5058799369  -0.000000001047 0.00000325  0.00000011  0.0000020 0.0000
 13   -157.5058799370  -0.000000000120 0.00000361  0.00000014  0.0000010 0.0000
 14   -157.5058799371  -0.000000000081 0.00000122  0.00000005  0.0000004 0.0000
 15   -157.5058799371  -0.000000000005 0.00000072  0.00000003  0.0000002 0.0000
 16   -157.5058799371   0.000000000001 0.00000014  0.00000001  0.0000001 0.0000
                 **** Energy Check signals convergence ****

 Fermi smearing  (ALPHA): E(HOMO(Eh)) = -0.325967 MUE = -0.089523 gap=   7.889 eV
 Fermi smearing   (BETA): E(HOMO(Eh)) = -0.320468 MUE = -0.193831 gap=   6.829 eV

N_FOD(alpha) =  0.000000
 N_FOD(beta) =  0.000000
       N_FOD =  0.000000

               *****************************************************
               *                     SUCCESS                       *
               *           SCF CONVERGED AFTER  17 CYCLES          *
               *****************************************************

Setting up the final grid:

General Integration Accuracy     IntAcc      ...  4.670
Radial Grid Type                 RadialGrid  ... Gauss-Chebyshev
Angular Grid (max. acc.)         AngularGrid ... Lebedev-302
Angular grid pruning method      GridPruning ... 3 (G Style)
Weight generation scheme         WeightScheme... Becke
Basis function cutoff            BFCut       ...    1.0000e-12
Integration weight cutoff        WCut        ...    1.0000e-14
Grids for H and He will be reduced by one unit

# of grid points (after initial pruning)     ...  55394 (   0.0 sec)
# of grid points (after weights+screening)   ...  51069 (   0.1 sec)
nearest neighbour list constructed           ...    0.0 sec
Grid point re-assignment to atoms done       ...    0.0 sec
Grid point division into batches done        ...    0.1 sec
Reduced shell lists constructed in    0.3 sec

Total number of grid points                  ...    51069
Total number of batches                      ...      805
Average number of points per batch           ...       63
Average number of grid points per atom       ...     3928
Average number of shells per batch           ...    35.13 (83.65%)
Average number of basis functions per batch  ...    62.42 (84.36%)
Average number of large shells per batch     ...    30.50 (86.82%)
Average number of large basis fcns per batch ...    53.72 (86.06%)
Maximum spatial batch extension              ...  22.21, 19.50, 20.73 au
Average spatial batch extension              ...   2.61,  2.65,  2.55 au

Final grid set up in    3.9 sec
Final integration                            ... done (  14.9 sec)
Change in XC energy                          ...     0.000288337
Integrated number of electrons               ...    32.999875262
Previous integrated no of electrons          ...    33.002320212

----------------
TOTAL SCF ENERGY
----------------

Total Energy       :         -157.50559160 Eh           -4285.94504 eV

Components:
Nuclear Repulsion  :          127.89599268 Eh            3480.22689 eV
Electronic Energy  :         -285.40158428 Eh           -7766.17193 eV
One Electron Energy:         -463.23687108 Eh          -12605.31610 eV
Two Electron Energy:          177.83528679 Eh            4839.14417 eV

Virial components:
Potential Energy   :         -313.40643584 Eh           -8528.22269 eV
Kinetic Energy     :          155.90084424 Eh            4242.27764 eV
Virial Ratio       :            2.01029338


DFT components:
N(Alpha)           :       16.999925900035 electrons
N(Beta)            :       15.999949361985 electrons
N(Total)           :       32.999875262020 electrons
E(X)               :      -18.887615676000 Eh       
E(C)               :       -1.221381040133 Eh       
E(XC)              :      -20.108996716133 Eh       
DFET-embed. en.    :        0.000000000000 Eh       

---------------
SCF CONVERGENCE
---------------

  Last Energy change         ...   -7.3896e-12  Tolerance :   1.0000e-09
  Last MAX-Density change    ...    1.2510e-07  Tolerance :   1.0000e-08
  Last RMS-Density change    ...    5.3583e-09  Tolerance :   1.0000e-09
  Last DIIS Error            ...    2.1941e-08  Tolerance :   1.0000e-08

             **** THE GBW FILE WAS UPDATED (orca7.gbw) ****
             **** DENSITY FILE WAS UPDATED (orca7.scfp) ****
             **** ENERGY FILE WAS UPDATED (orca7.en.tmp) ****
             **** THE GBW FILE WAS UPDATED (orca7.gbw) ****
             **** DENSITY FILE WAS UPDATED (orca7.scfp) ****
----------------
ORBITAL ENERGIES
----------------
                 SPIN UP ORBITALS
  NO   OCC          E(Eh)            E(eV) 
   0   1.0000     -10.188024      -277.2302 
   1   1.0000     -10.183720      -277.1131 
   2   1.0000     -10.174544      -276.8634 
   3   1.0000     -10.166469      -276.6437 
   4   1.0000      -0.809055       -22.0155 
   5   1.0000      -0.673876       -18.3371 
   6   1.0000      -0.665838       -18.1184 
   7   1.0000      -0.551252       -15.0003 
   8   1.0000      -0.467000       -12.7077 
   9   1.0000      -0.430947       -11.7267 
  10   1.0000      -0.423073       -11.5124 
  11   1.0000      -0.385139       -10.4802 
  12   1.0000      -0.378003       -10.2860 
  13   1.0000      -0.346080        -9.4173 
  14   1.0000      -0.328900        -8.9498 
  15   1.0000      -0.325967        -8.8700 
  16   1.0000      -0.234486        -6.3807 
  17   0.0000       0.055441         1.5086 
  18   0.0000       0.086010         2.3404 
  19   0.0000       0.100566         2.7365 
  20   0.0000       0.114334         3.1112 
  21   0.0000       0.122864         3.3433 
  22   0.0000       0.141313         3.8453 
  23   0.0000       0.146415         3.9842 
  24   0.0000       0.165711         4.5092 
  25   0.0000       0.180936         4.9235 
  26   0.0000       0.218236         5.9385 
  27   0.0000       0.252896         6.8816 
  28   0.0000       0.272494         7.4149 
  29   0.0000       0.393697        10.7130 
  30   0.0000       0.424789        11.5591 
  31   0.0000       0.448785        12.2120 
  32   0.0000       0.462215        12.5775 
  33   0.0000       0.476719        12.9722 
  34   0.0000       0.489921        13.3314 
  35   0.0000       0.591754        16.1024 
  36   0.0000       0.603806        16.4304 
  37   0.0000       0.624510        16.9938 
  38   0.0000       0.656043        17.8518 
  39   0.0000       0.668041        18.1783 
  40   0.0000       0.678348        18.4588 
  41   0.0000       0.684077        18.6147 
  42   0.0000       0.694246        18.8914 
  43   0.0000       0.699143        19.0247 
  44   0.0000       0.708644        19.2832 
  45   0.0000       0.712210        19.3802 
  46   0.0000       0.729899        19.8616 
  47   0.0000       0.740708        20.1557 
  48   0.0000       0.750327        20.4174 
  49   0.0000       0.765062        20.8184 
  50   0.0000       0.786026        21.3888 
  51   0.0000       0.948136        25.8001 
  52   0.0000       1.013527        27.5795 
  53   0.0000       1.092070        29.7167 
  54   0.0000       1.404956        38.2308 
  55   0.0000       1.416090        38.5338 
  56   0.0000       1.741742        47.3952 
  57   0.0000       1.750832        47.6426 
  58   0.0000       1.791507        48.7494 
  59   0.0000       1.858148        50.5628 
  60   0.0000       1.901793        51.7504 
  61   0.0000       1.918142        52.1953 
  62   0.0000       1.972572        53.6764 
  63   0.0000       2.038756        55.4774 
  64   0.0000       2.051540        55.8253 
  65   0.0000       2.090384        56.8822 
  66   0.0000       2.142707        58.3060 
  67   0.0000       2.146477        58.4086 
  68   0.0000       2.198788        59.8321 
  69   0.0000       2.432469        66.1908 
  70   0.0000       2.441971        66.4494 
  71   0.0000       2.485186        67.6253 
  72   0.0000       2.684754        73.0559 
  73   0.0000       2.701254        73.5049 

                 SPIN DOWN ORBITALS
  NO   OCC          E(Eh)            E(eV) 
   0   1.0000     -10.183972      -277.1200 
   1   1.0000     -10.173215      -276.8272 
   2   1.0000     -10.172725      -276.8139 
   3   1.0000     -10.166404      -276.6419 
   4   1.0000      -0.802406       -21.8346 
   5   1.0000      -0.670392       -18.2423 
   6   1.0000      -0.646723       -17.5982 
   7   1.0000      -0.545142       -14.8341 
   8   1.0000      -0.463209       -12.6046 
   9   1.0000      -0.426829       -11.6146 
  10   1.0000      -0.414295       -11.2735 
  11   1.0000      -0.383586       -10.4379 
  12   1.0000      -0.369064       -10.0427 
  13   1.0000      -0.341238        -9.2856 
  14   1.0000      -0.326224        -8.8770 
  15   1.0000      -0.320468        -8.7204 
  16   0.0000      -0.069508        -1.8914 
  17   0.0000       0.057324         1.5599 
  18   0.0000       0.087350         2.3769 
  19   0.0000       0.104185         2.8350 
  20   0.0000       0.116965         3.1828 
  21   0.0000       0.126677         3.4471 
  22   0.0000       0.143654         3.9090 
  23   0.0000       0.148897         4.0517 
  24   0.0000       0.166522         4.5313 
  25   0.0000       0.185584         5.0500 
  26   0.0000       0.222521         6.0551 
  27   0.0000       0.255983         6.9656 
  28   0.0000       0.280838         7.6420 
  29   0.0000       0.397650        10.8206 
  30   0.0000       0.425751        11.5853 
  31   0.0000       0.453395        12.3375 
  32   0.0000       0.466370        12.6906 
  33   0.0000       0.486769        13.2456 
  34   0.0000       0.551085        14.9958 
  35   0.0000       0.599614        16.3163 
  36   0.0000       0.607503        16.5310 
  37   0.0000       0.635847        17.3023 
  38   0.0000       0.661245        17.9934 
  39   0.0000       0.670087        18.2340 
  40   0.0000       0.680162        18.5082 
  41   0.0000       0.693776        18.8786 
  42   0.0000       0.697214        18.9721 
  43   0.0000       0.708957        19.2917 
  44   0.0000       0.710156        19.3243 
  45   0.0000       0.714402        19.4399 
  46   0.0000       0.732676        19.9371 
  47   0.0000       0.744979        20.2719 
  48   0.0000       0.753754        20.5107 
  49   0.0000       0.770176        20.9576 
  50   0.0000       0.791326        21.5331 
  51   0.0000       0.955612        26.0035 
  52   0.0000       1.015804        27.6414 
  53   0.0000       1.094938        29.7948 
  54   0.0000       1.413524        38.4640 
  55   0.0000       1.424202        38.7545 
  56   0.0000       1.755888        47.7801 
  57   0.0000       1.780958        48.4623 
  58   0.0000       1.797566        48.9143 
  59   0.0000       1.890724        51.4492 
  60   0.0000       1.924202        52.3602 
  61   0.0000       1.936686        52.6999 
  62   0.0000       1.976506        53.7835 
  63   0.0000       2.056498        55.9601 
  64   0.0000       2.062250        56.1167 
  65   0.0000       2.099020        57.1172 
  66   0.0000       2.145669        58.3866 
  67   0.0000       2.169254        59.0284 
  68   0.0000       2.208309        60.0912 
  69   0.0000       2.440491        66.4091 
  70   0.0000       2.449338        66.6499 
  71   0.0000       2.495021        67.8930 
  72   0.0000       2.691820        73.2481 
  73   0.0000       2.708664        73.7065 

                    ********************************
                    * MULLIKEN POPULATION ANALYSIS *
                    ********************************

------------------------------------------
FOD BASED MULLIKEN REDUCED ORBITAL CHARGES
------------------------------------------
  0 C s       :    -0.000000  s :    -0.000000
      pz      :     0.000000  p :     0.000000
      px      :     0.000000
      py      :     0.000000
      dz2     :     0.000000  d :     0.000000
      dxz     :     0.000000
      dyz     :     0.000000
      dx2y2   :     0.000000
      dxy     :     0.000000
  1 C s       :     0.000000  s :     0.000000
      pz      :     0.000000  p :     0.000000
      px      :     0.000000
      py      :     0.000000
      dz2     :     0.000000  d :     0.000000
      dxz     :     0.000000
      dyz     :     0.000000
      dx2y2   :     0.000000
      dxy     :     0.000000
  2 C s       :    -0.000000  s :    -0.000000
      pz      :     0.000000  p :     0.000000
      px      :     0.000000
      py      :     0.000000
      dz2     :     0.000000  d :     0.000000
      dxz     :     0.000000
      dyz     :     0.000000
      dx2y2   :     0.000000
      dxy     :     0.000000
  3 C s       :    -0.000000  s :    -0.000000
      pz      :     0.000000  p :     0.000000
      px      :     0.000000
      py      :     0.000000
      dz2     :     0.000000  d :     0.000000
      dxz     :     0.000000
      dyz     :     0.000000
      dx2y2   :     0.000000
      dxy     :     0.000000
  4 H s       :     0.000000  s :     0.000000
  5 H s       :     0.000000  s :     0.000000
  6 H s       :     0.000000  s :     0.000000
  7 H s       :     0.000000  s :     0.000000
  8 H s       :     0.000000  s :     0.000000
  9 H s       :     0.000000  s :     0.000000
 10 H s       :     0.000000  s :     0.000000
 11 H s       :     0.000000  s :     0.000000
 12 H s       :     0.000000  s :     0.000000


                     *******************************
                     * LOEWDIN POPULATION ANALYSIS *
                     *******************************

-------------------------------------------
LOEWDIN ATOMIC CHARGES AND SPIN POPULATIONS
-------------------------------------------
   0 C :   -0.178047    0.003640
   1 C :   -0.202950    0.944331
   2 C :   -0.306299    0.002774
   3 C :   -0.300177    0.044600
   4 H :    0.112196    0.012776
   5 H :    0.105818   -0.010401
   6 H :    0.103385   -0.009853
   7 H :    0.108932    0.000796
   8 H :    0.110451   -0.000908
   9 H :    0.106268   -0.000153
  10 H :    0.118064    0.009670
  11 H :    0.108380    0.002378
  12 H :    0.113980    0.000350

----------------------------------------------------
LOEWDIN REDUCED ORBITAL CHARGES AND SPIN POPULATIONS
----------------------------------------------------
CHARGE
  0 C s       :     2.870769  s :     2.870769
      pz      :     1.078601  p :     3.191492
      px      :     1.068057
      py      :     1.044834
      dz2     :     0.023423  d :     0.115785
      dxz     :     0.020915
      dyz     :     0.018810
      dx2y2   :     0.030198
      dxy     :     0.022439
  1 C s       :     3.050676  s :     3.050676
      pz      :     1.083937  p :     3.088503
      px      :     1.059094
      py      :     0.945472
      dz2     :     0.018792  d :     0.063772
      dxz     :     0.012246
      dyz     :     0.009908
      dx2y2   :     0.011046
      dxy     :     0.011779
  2 C s       :     2.954779  s :     2.954779
      pz      :     1.096469  p :     3.274877
      px      :     1.071256
      py      :     1.107152
      dz2     :     0.010697  d :     0.076642
      dxz     :     0.018839
      dyz     :     0.017006
      dx2y2   :     0.016903
      dxy     :     0.013197
  3 C s       :     2.958890  s :     2.958890
      pz      :     1.108728  p :     3.266688
      px      :     1.106441
      py      :     1.051518
      dz2     :     0.015887  d :     0.074600
      dxz     :     0.006452
      dyz     :     0.019778
      dx2y2   :     0.022016
      dxy     :     0.010467
  4 H s       :     0.887804  s :     0.887804
  5 H s       :     0.894182  s :     0.894182
  6 H s       :     0.896615  s :     0.896615
  7 H s       :     0.891068  s :     0.891068
  8 H s       :     0.889549  s :     0.889549
  9 H s       :     0.893732  s :     0.893732
 10 H s       :     0.881936  s :     0.881936
 11 H s       :     0.891620  s :     0.891620
 12 H s       :     0.886020  s :     0.886020

SPIN
  0 C s       :    -0.002707  s :    -0.002707
      pz      :    -0.004562  p :    -0.005350
      px      :    -0.006241
      py      :     0.005453
      dz2     :     0.002477  d :     0.011697
      dxz     :     0.001467
      dyz     :     0.001177
      dx2y2   :     0.006240
      dxy     :     0.000336
  1 C s       :     0.108470  s :     0.108470
      pz      :     0.023788  p :     0.839838
      px      :     0.032425
      py      :     0.783625
      dz2     :    -0.000777  d :    -0.003977
      dxz     :    -0.000370
      dyz     :    -0.001081
      dx2y2   :    -0.000520
      dxy     :    -0.001230
  2 C s       :     0.000321  s :     0.000321
      pz      :     0.000399  p :     0.002588
      px      :     0.000649
      py      :     0.001540
      dz2     :    -0.000028  d :    -0.000135
      dxz     :    -0.000101
      dyz     :     0.000106
      dx2y2   :    -0.000019
      dxy     :    -0.000092
  3 C s       :     0.014288  s :     0.014288
      pz      :     0.000288  p :     0.029155
      px      :     0.001063
      py      :     0.027804
      dz2     :     0.000247  d :     0.001157
      dxz     :     0.000121
      dyz     :     0.000087
      dx2y2   :     0.000188
      dxy     :     0.000515
  4 H s       :     0.012776  s :     0.012776
  5 H s       :    -0.010401  s :    -0.010401
  6 H s       :    -0.009853  s :    -0.009853
  7 H s       :     0.000796  s :     0.000796
  8 H s       :    -0.000908  s :    -0.000908
  9 H s       :    -0.000153  s :    -0.000153
 10 H s       :     0.009670  s :     0.009670
 11 H s       :     0.002378  s :     0.002378
 12 H s       :     0.000350  s :     0.000350


                      *****************************
                      * MAYER POPULATION ANALYSIS *
                      *****************************

  NA   - Mulliken gross atomic population
  ZA   - Total nuclear charge
  QA   - Mulliken gross atomic charge
  VA   - Mayer's total valence
  BVA  - Mayer's bonded valence
  FA   - Mayer's free valence

  ATOM       NA         ZA         QA         VA         BVA        FA
  0 C      6.1469     6.0000    -0.1469     4.1938     4.1914     0.0025
  1 C      6.1595     6.0000    -0.1595     3.8788     3.0271     0.8517
  2 C      6.2377     6.0000    -0.2377     3.9528     3.9528     0.0000
  3 C      6.2506     6.0000    -0.2506     3.9275     3.9258     0.0017
  4 H      0.9226     1.0000     0.0774     0.9401     0.9399     0.0002
  5 H      0.9193     1.0000     0.0807     0.9561     0.9550     0.0011
  6 H      0.9134     1.0000     0.0866     0.9533     0.9521     0.0012
  7 H      0.9063     1.0000     0.0937     0.9547     0.9547     0.0000
  8 H      0.9138     1.0000     0.0862     0.9526     0.9526     0.0000
  9 H      0.9126     1.0000     0.0874     0.9653     0.9653     0.0000
 10 H      0.8992     1.0000     0.1008     0.9557     0.9554     0.0003
 11 H      0.9107     1.0000     0.0893     0.9648     0.9648     0.0000
 12 H      0.9074     1.0000     0.0926     0.9698     0.9698     0.0000

  Mayer bond orders larger than 0.100000
B(  0-C ,  1-C ) :   1.0994 B(  0-C ,  2-C ) :   1.1064 B(  0-C ,  3-C ) :   1.0508 
B(  0-C ,  4-H ) :   0.9141 B(  1-C ,  5-H ) :   0.9449 B(  1-C ,  6-H ) :   0.9467 
B(  2-C ,  7-H ) :   0.9569 B(  2-C ,  8-H ) :   0.9596 B(  2-C ,  9-H ) :   0.9486 
B(  3-C , 10-H ) :   0.9523 B(  3-C , 11-H ) :   0.9582 B(  3-C , 12-H ) :   0.9529 


-------
TIMINGS
-------

Total SCF time: 0 days 0 hours 8 min 48 sec 

Total time                  ....     528.583 sec
Sum of individual times     ....     432.983 sec  ( 81.9%)

Fock matrix formation       ....     363.422 sec  ( 68.8%)
  XC integration            ....     186.444 sec  ( 51.3% of F)
    Basis function eval.    ....       0.871 sec  (  0.5% of XC)
    Density eval.           ....       0.612 sec  (  0.3% of XC)
    XC-Functional eval.     ....       0.374 sec  (  0.2% of XC)
    XC-Potential eval.      ....       0.949 sec  (  0.5% of XC)
Diagonalization             ....      12.122 sec  (  2.3%)
Density matrix formation    ....      21.132 sec  (  4.0%)
Population analysis         ....      19.012 sec  (  3.6%)
Initial guess               ....       0.424 sec  (  0.1%)
Orbital Transformation      ....       0.000 sec  (  0.0%)
Orbital Orthonormalization  ....       0.000 sec  (  0.0%)
DIIS solution               ....      11.739 sec  (  2.2%)
Grid generation             ....       5.132 sec  (  1.0%)


-------------------------------------------------------------------------------
                          DFT DISPERSION CORRECTION                            
                                                                               
                              DFTD3 V3.1  Rev 1                                
                          USING Becke-Johnson damping                          
-------------------------------------------------------------------------------
The B3LYP functional is recognized
Active option DFTDOPT                   ...         4   

molecular C6(AA) [au] = 1132.091015 


            DFT-D V3
 parameters
 s6 scaling factor         :     1.0000 
 a1 scaling factor         :     0.3981 
 s8 scaling factor         :     1.9889 
 a2 scaling factor         :     4.4211 
 ad hoc parameters k1-k3   :    16.0000     1.3333    -4.0000 

 Edisp/kcal,au: -9.341168427888  -0.014886097848 
 E6   /kcal   :  -4.629754261 
 E8   /kcal   :  -4.711414167 
 % E8         :  50.437096848 

-------------------------   ----------------
Dispersion correction           -0.014886098
-------------------------   ----------------


-------------------------   --------------------
FINAL SINGLE POINT ENERGY      -157.520477698170
-------------------------   --------------------

------------------------------------------------------------------------------
                         ORCA SCF GRADIENT CALCULATION
------------------------------------------------------------------------------

Gradient of the Kohn-Sham DFT energy:
Kohn-Sham wavefunction type      ... UKS
Hartree-Fock exchange scaling    ...    0.200
Number of operators              ...    2
Number of atoms                  ...   13
Basis set dimensions             ...   74
Integral neglect threshold       ... 1.0e-12
Integral primitive cutoff        ... 1.0e-14

Nuclear repulsion gradient       ... done
One Electron Gradient            ... done
Pre-screening matrix             ... done
Starting the two electron gradient:
Two electron gradient done
Exchange-correlation gradient    ... done
Dispersion correction            ... done

------------------
CARTESIAN GRADIENT
------------------

   1   C   :   -0.005908232   -0.020978640    0.008295224
   2   C   :    0.014040512    0.040953716    0.001765336
   3   C   :   -0.031572792   -0.001515286    0.006451830
   4   C   :    0.022820786    0.014522487    0.002040398
   5   H   :    0.004521020    0.004660347   -0.003861326
   6   H   :    0.000567591   -0.014386533   -0.011498094
   7   H   :    0.000960802   -0.022202605   -0.001389778
   8   H   :    0.000855977   -0.001301262   -0.000712371
   9   H   :   -0.000989389   -0.001896316   -0.010308385
  10   H   :    0.002954100   -0.006240282    0.002600650
  11   H   :   -0.005471490    0.003008191   -0.005230525
  12   H   :   -0.003983859    0.000786023    0.002796874
  13   H   :    0.001204974    0.004590161    0.009050166

Difference to translation invariance:
           :    0.0000000000    0.0000000000   -0.0000000000

Norm of the cartesian gradient     ...    0.0738482426
RMS gradient                       ...    0.0118251827
MAX gradient                       ...    0.0409537158

-------
TIMINGS
-------

Total SCF gradient time            ...        3.970 sec

One electron gradient       ....       0.029 sec  (  0.7%)
Prescreening matrices       ....       0.028 sec  (  0.7%)
Two electron gradient       ....       1.333 sec  ( 33.6%)
XC gradient                 ....       2.344 sec  ( 59.0%)
------------------------------------------------------------------------------
                         ORCA GEOMETRY RELAXATION STEP
------------------------------------------------------------------------------

Reading the OPT-File                    .... done
Getting information on internals        .... done
Copying old internal coords+grads       .... done
Making the new internal coordinates     .... (new redundants).... done
Validating the new internal coordinates .... (new redundants).... done
Calculating the B-matrix                .... done
Calculating the G,G- and P matrices     .... done
Transforming gradient to internals      .... done
Projecting the internal gradient        .... done
Number of atoms                         ....  13
Number of internal coordinates          ....  57
Current Energy                          ....  -157.520477698 Eh
Current gradient norm                   ....     0.073848243 Eh/bohr
Maximum allowed component of the step   ....  0.300
Current trust radius                    ....  0.300
Evaluating the initial hessian          ....  (Almloef) done
Projecting the Hessian                  .... done
Forming the augmented Hessian           .... done
Diagonalizing the augmented Hessian     .... done
Last element of RFO vector              ....  0.933182380
Lowest eigenvalues of augmented Hessian:
 -0.021582741  0.012499455  0.013215404  0.014036606  0.079122307
Length of the computed step             ....  0.385137125
Warning: the length of the step is outside the trust region - taking restricted step instead
The input lambda is                     ....    -0.021583
   iter:   1  x=   -0.038330  g=    3.482893 f(x)=     0.058331
   iter:   2  x=   -0.048568  g=    1.726232 f(x)=     0.017673
   iter:   3  x=   -0.050527  g=    1.275929 f(x)=     0.002499
   iter:   4  x=   -0.050579  g=    1.211808 f(x)=     0.000064
   iter:   5  x=   -0.050579  g=    1.210160 f(x)=     0.000000
   iter:   6  x=   -0.050579  g=    1.210159 f(x)=     0.000000
   iter:   7  x=   -0.050579  g=    1.210159 f(x)=     0.000000
The output lambda is                    ....    -0.050579 (7 iterations)
The final length of the internal step   ....  0.300000000
Converting the step to cartesian space:
 Initial RMS(Int)=    0.0397359707
Transforming coordinates:
 Iter   0:  RMS(Cart)=    0.0857531062 RMS(Int)=    0.0398561928
 Iter   1:  RMS(Cart)=    0.0043961883 RMS(Int)=    0.0034445802
 Iter   2:  RMS(Cart)=    0.0003565299 RMS(Int)=    0.0002760101
 Iter   3:  RMS(Cart)=    0.0000584790 RMS(Int)=    0.0000461109
 Iter   4:  RMS(Cart)=    0.0000054815 RMS(Int)=    0.0000046478
 Iter   5:  RMS(Cart)=    0.0000008938 RMS(Int)=    0.0000006780
 Iter   6:  RMS(Cart)=    0.0000000924 RMS(Int)=    0.0000000797
done
Storing new coordinates                 .... done

                                .--------------------.
          ----------------------|Geometry convergence|-------------------------
          Item                value                   Tolerance       Converged
          ---------------------------------------------------------------------
          RMS gradient        0.0094212086            0.0001000000      NO
          MAX gradient        0.0294001892            0.0003000000      NO
          RMS step            0.0397359707            0.0020000000      NO
          MAX step            0.1247284522            0.0040000000      NO
          ........................................................
          Max(Bonds)      0.0314      Max(Angles)    5.86
          Max(Dihed)        7.15      Max(Improp)    0.00
          ---------------------------------------------------------------------

The optimization has not yet converged - more geometry cycles are needed


    ---------------------------------------------------------------------------
                         Redundant Internal Coordinates
                            (Angstroem and degrees)

        Definition                    Value    dE/dq     Step     New-Value
    ----------------------------------------------------------------------------
     1. B(C   1,C   0)                1.4979 -0.014322  0.0161    1.5140   
     2. B(C   2,C   0)                1.5018 -0.026957  0.0307    1.5325   
     3. B(C   3,C   0)                1.5164 -0.026345  0.0314    1.5478   
     4. B(H   4,C   0)                1.1186  0.005834 -0.0082    1.1103   
     5. B(H   5,C   1)                1.0971 -0.006932  0.0091    1.1062   
     6. B(H   6,C   1)                1.1152  0.005886 -0.0082    1.1070   
     7. B(H   7,C   2)                1.1037 -0.001067  0.0014    1.1051   
     8. B(H   8,C   2)                1.1202  0.007089 -0.0101    1.1101   
     9. B(H   9,C   2)                1.1142  0.005947 -0.0083    1.1059   
    10. B(H  10,C   3)                1.1066  0.001494 -0.0020    1.1045   
    11. B(H  11,C   3)                1.1140  0.003926 -0.0055    1.1086   
    12. B(H  12,C   3)                1.1119  0.005712 -0.0079    1.1040   
    13. A(C   1,C   0,H   4)          109.44 -0.003644   -0.21    109.23   
    14. A(C   2,C   0,H   4)          107.06  0.002539   -0.64    106.42   
    15. A(C   1,C   0,C   2)          114.24  0.008037   -1.00    113.24   
    16. A(C   1,C   0,C   3)          109.24  0.002013    0.18    109.42   
    17. A(C   2,C   0,C   3)          105.73 -0.016170    3.43    109.16   
    18. A(C   3,C   0,H   4)          111.08  0.007311   -1.77    109.31   
    19. A(H   5,C   1,H   6)          107.70  0.004786    2.66    110.37   
    20. A(C   0,C   1,H   6)          107.04 -0.029400    5.86    112.91   
    21. A(C   0,C   1,H   5)          108.53 -0.022538    4.73    113.26   
    22. A(H   7,C   2,H   9)          109.07 -0.000625   -0.51    108.56   
    23. A(C   0,C   2,H   9)          113.54  0.004000   -0.80    112.74   
    24. A(H   7,C   2,H   8)          106.84  0.003125   -0.10    106.73   
    25. A(C   0,C   2,H   8)          105.93 -0.012823    2.34    108.27   
    26. A(H   8,C   2,H   9)          106.94  0.002967   -0.14    106.80   
    27. A(C   0,C   2,H   7)          114.03  0.003019   -0.62    113.40   
    28. A(H  11,C   3,H  12)          105.78  0.002447    0.11    105.89   
    29. A(H  10,C   3,H  12)          113.10  0.008352   -1.91    111.19   
    30. A(C   0,C   3,H  12)          107.98 -0.009453    1.44    109.42   
    31. A(H  10,C   3,H  11)          105.92  0.000174    0.08    106.01   
    32. A(C   0,C   3,H  11)          111.64 -0.001735    0.54    112.17   
    33. A(C   0,C   3,H  10)          112.27  0.000617   -0.27    112.00   
    34. D(H   6,C   1,C   0,C   3)    -46.79  0.004397   -3.31    -50.10   
    35. D(H   6,C   1,C   0,H   4)     75.03  0.012392   -5.51     69.52   
    36. D(H   6,C   1,C   0,C   2)   -164.96  0.018381   -7.15   -172.11   
    37. D(H   5,C   1,C   0,H   4)   -168.98 -0.008743    3.05   -165.93   
    38. D(H   5,C   1,C   0,C   2)    -48.97 -0.002754    1.41    -47.56   
    39. D(H   5,C   1,C   0,C   3)     69.20 -0.016739    5.25     74.45   
    40. D(H   7,C   2,C   0,C   1)    -51.69 -0.003618    1.13    -50.55   
    41. D(H   9,C   2,C   0,C   1)     74.07  0.001555   -0.80     73.27   
    42. D(H   8,C   2,C   0,H   4)    -47.54  0.001489   -1.27    -48.81   
    43. D(H   8,C   2,C   0,C   1)   -168.88 -0.000800    0.08   -168.80   
    44. D(H   7,C   2,C   0,H   4)     69.65 -0.001328   -0.22     69.43   
    45. D(H   7,C   2,C   0,C   3)   -171.84  0.000225   -0.85   -172.69   
    46. D(H   9,C   2,C   0,C   3)    -46.09  0.005397   -2.78    -48.87   
    47. D(H   9,C   2,C   0,H   4)   -164.59  0.003844   -2.15   -166.75   
    48. D(H   8,C   2,C   0,C   3)     70.96  0.003042   -1.90     69.07   
    49. D(H  12,C   3,C   0,H   4)    151.68  0.000018    0.75    152.44   
    50. D(H  12,C   3,C   0,C   1)    -87.49  0.001452   -0.52    -88.01   
    51. D(H  11,C   3,C   0,H   4)    -92.44 -0.003636    2.04    -90.41   
    52. D(H  11,C   3,C   0,C   2)    151.76 -0.001163    1.74    153.50   
    53. D(H  11,C   3,C   0,C   1)     28.38 -0.002201    0.77     29.15   
    54. D(H  10,C   3,C   0,H   4)     26.33 -0.004185    2.33     28.66   
    55. D(H  12,C   3,C   0,C   2)     35.88  0.002491    0.45     36.34   
    56. D(H  10,C   3,C   0,C   2)    -89.47 -0.001712    2.03    -87.44   
    57. D(H  10,C   3,C   0,C   1)    147.15 -0.002750    1.06    148.21   
    ----------------------------------------------------------------------------

Time needed for optimization step       :     5.17 sec

         *************************************************************
         *                GEOMETRY OPTIMIZATION CYCLE   2            *
         *************************************************************
---------------------------------
CARTESIAN COORDINATES (ANGSTROEM)
---------------------------------
  C      0.029056    0.179660   -0.367395
  C     -1.025285    0.945924    0.402950
  C      1.419231    0.255662    0.273136
  C     -0.396059   -1.303996   -0.484554
  H      0.127281    0.614973   -1.384097
  H     -1.002652    0.737893    1.489217
  H     -2.046556    0.774709    0.011711
  H      1.738317    1.287323    0.507906
  H      2.157863   -0.150822   -0.449031
  H      1.500474   -0.355118    1.191473
  H     -0.039893   -1.763547   -1.423667
  H     -1.498061   -1.424580   -0.483927
  H     -0.030910   -1.860874    0.395965

----------------------------
CARTESIAN COORDINATES (A.U.)
----------------------------
  NO LB      ZA    FRAG     MASS         X           Y           Z
   0 C     6.0000    0    12.011    0.054907    0.339509   -0.694276
   1 C     6.0000    0    12.011   -1.937507    1.787538    0.761465
   2 C     6.0000    0    12.011    2.681958    0.483131    0.516153
   3 C     6.0000    0    12.011   -0.748444   -2.464196   -0.915675
   4 H     1.0000    0     1.008    0.240527    1.162130   -2.615564
   5 H     1.0000    0     1.008   -1.894737    1.394416    2.814212
   6 H     1.0000    0     1.008   -3.867430    1.463988    0.022131
   7 H     1.0000    0     1.008    3.284942    2.432688    0.959804
   8 H     1.0000    0     1.008    4.077771   -0.285013   -0.848545
   9 H     1.0000    0     1.008    2.835485   -0.671076    2.251557
  10 H     1.0000    0     1.008   -0.075387   -3.332622   -2.690340
  11 H     1.0000    0     1.008   -2.830926   -2.692066   -0.914490
  12 H     1.0000    0     1.008   -0.058412   -3.516543    0.748265

--------------------------------
INTERNAL COORDINATES (ANGSTROEM)
--------------------------------
 C      0   0   0     0.000000000000     0.00000000     0.00000000
 C      1   0   0     1.514009750186     0.00000000     0.00000000
 C      1   2   0     1.532528675844   113.20002593     0.00000000
 C      1   2   3     1.547800127119   109.41369318   121.99113159
 H      1   2   3     1.110327765237   109.21334006   241.61117524
 H      2   1   3     1.106238999779   112.96699898   312.64946924
 H      2   1   3     1.106967803801   112.60440195   187.70860047
 H      3   1   2     1.105104726852   113.39111729   309.43858115
 H      3   1   2     1.110104924488   108.27086918   191.19889461
 H      3   1   2     1.105890665427   112.72593970    73.27141330
 H      4   1   2     1.104524356031   112.00033019   148.20362925
 H      4   1   2     1.108579704209   112.16348742    29.14245824
 H      4   1   2     1.103975239585   109.40887655   271.97392803

---------------------------
INTERNAL COORDINATES (A.U.)
---------------------------
 C      0   0   0     0.000000000000     0.00000000     0.00000000
 C      1   0   0     2.861063791937     0.00000000     0.00000000
 C      1   2   0     2.896059489726   113.20002593     0.00000000
 C      1   2   3     2.924918350303   109.41369318   121.99113159
 H      1   2   3     2.098215395187   109.21334006   241.61117524
 H      2   1   3     2.090488748246   112.96699898   312.64946924
 H      2   1   3     2.091865988253   112.60440195   187.70860047
 H      3   1   2     2.088345283051   113.39111729   309.43858115
 H      3   1   2     2.097794287200   108.27086918   191.19889461
 H      3   1   2     2.089830491716   112.72593970    73.27141330
 H      4   1   2     2.087248541144   112.00033019   148.20362925
 H      4   1   2     2.094912038578   112.16348742    29.14245824
 H      4   1   2     2.086210861446   109.40887655   271.97392803


Diagonalization of the overlap matrix:
Smallest eigenvalue                        ... 2.310e-03
Time for diagonalization                   ...    0.001 sec
Threshold for overlap eigenvalues          ... 1.000e-08
Number of eigenvalues below threshold      ... 0
Time for construction of square roots      ...    0.342 sec
Total time needed                          ...    0.343 sec

-------------------
DFT GRID GENERATION
-------------------

General Integration Accuracy     IntAcc      ...  4.340
Radial Grid Type                 RadialGrid  ... Gauss-Chebyshev
Angular Grid (max. acc.)         AngularGrid ... Lebedev-110
Angular grid pruning method      GridPruning ... 3 (G Style)
Weight generation scheme         WeightScheme... Becke
Basis function cutoff            BFCut       ...    1.0000e-12
Integration weight cutoff        WCut        ...    1.0000e-14
Grids for H and He will be reduced by one unit

# of grid points (after initial pruning)     ...  13770 (   0.0 sec)
# of grid points (after weights+screening)   ...  12904 (   0.0 sec)
nearest neighbour list constructed           ...    0.0 sec
Grid point re-assignment to atoms done       ...    0.0 sec
Grid point division into batches done        ...    0.0 sec
Reduced shell lists constructed in    0.1 sec

Total number of grid points                  ...    12904
Total number of batches                      ...      208
Average number of points per batch           ...       62
Average number of grid points per atom       ...      993
Average number of shells per batch           ...    37.37 (88.98%)
Average number of basis functions per batch  ...    66.55 (89.93%)
Average number of large shells per batch     ...    32.94 (88.14%)
Average number of large basis fcns per batch ...    58.09 (87.29%)
Maximum spatial batch extension              ...  19.77, 22.01, 23.65 au
Average spatial batch extension              ...   4.08,  4.10,  3.76 au

Time for grid setup =    1.721 sec

--------------
SCF ITERATIONS
--------------
ITER       Energy         Delta-E        Max-DP      RMS-DP      [F,P]     Damp
               ***  Starting incremental Fock matrix formation  ***
  0   -157.5150016327   0.000000000000 0.00508499  0.00020321  0.0187774 0.7000
  1   -157.5159193083  -0.000917675655 0.00478587  0.00018537  0.0139490 0.7000
                               ***Turning on DIIS***
  2   -157.5166374686  -0.000718160255 0.01258882  0.00048153  0.0104736 0.0000
  3   -157.5184805828  -0.001843114216 0.00282001  0.00009234  0.0028070 0.0000
  4   -157.5185340821  -0.000053499299 0.00119111  0.00004672  0.0014607 0.0000
  5   -157.5185482324  -0.000014150316 0.00150142  0.00005105  0.0008138 0.0000
  6   -157.5185545323  -0.000006299901 0.00032604  0.00001264  0.0002788 0.0000
  7   -157.5185551290  -0.000000596669 0.00005869  0.00000353  0.0000593 0.0000
  8   -157.5185551744  -0.000000045454 0.00002310  0.00000120  0.0000370 0.0000
  9   -157.5185551814  -0.000000006955 0.00000642  0.00000035  0.0000118 0.0000
 10   -157.5185551822  -0.000000000812 0.00000348  0.00000016  0.0000026 0.0000
 11   -157.5185551823  -0.000000000114 0.00000153  0.00000006  0.0000012 0.0000
 12   -157.5185551823  -0.000000000020 0.00000056  0.00000002  0.0000007 0.0000
 13   -157.5185551823  -0.000000000005 0.00000034  0.00000001  0.0000003 0.0000
 14   -157.5185551823   0.000000000002 0.00000010  0.00000000  0.0000001 0.0000
 15   -157.5185551823  -0.000000000006 0.00000005  0.00000000  0.0000001 0.0000
                 **** Energy Check signals convergence ****

 Fermi smearing  (ALPHA): E(HOMO(Eh)) = -0.327246 MUE = -0.083373 gap=   7.659 eV
 Fermi smearing   (BETA): E(HOMO(Eh)) = -0.323285 MUE = -0.190745 gap=   7.149 eV

N_FOD(alpha) =  0.000000
 N_FOD(beta) =  0.000000
       N_FOD =  0.000000

               *****************************************************
               *                     SUCCESS                       *
               *           SCF CONVERGED AFTER  16 CYCLES          *
               *****************************************************

Setting up the final grid:

General Integration Accuracy     IntAcc      ...  4.670
Radial Grid Type                 RadialGrid  ... Gauss-Chebyshev
Angular Grid (max. acc.)         AngularGrid ... Lebedev-302
Angular grid pruning method      GridPruning ... 3 (G Style)
Weight generation scheme         WeightScheme... Becke
Basis function cutoff            BFCut       ...    1.0000e-12
Integration weight cutoff        WCut        ...    1.0000e-14
Grids for H and He will be reduced by one unit

# of grid points (after initial pruning)     ...  55394 (   0.0 sec)
# of grid points (after weights+screening)   ...  51217 (   0.1 sec)
nearest neighbour list constructed           ...    0.0 sec
Grid point re-assignment to atoms done       ...    0.0 sec
Grid point division into batches done        ...    0.1 sec
Reduced shell lists constructed in    0.3 sec

Total number of grid points                  ...    51217
Total number of batches                      ...      806
Average number of points per batch           ...       63
Average number of grid points per atom       ...     3940
Average number of shells per batch           ...    34.94 (83.18%)
Average number of basis functions per batch  ...    62.05 (83.86%)
Average number of large shells per batch     ...    30.12 (86.22%)
Average number of large basis fcns per batch ...    52.89 (85.24%)
Maximum spatial batch extension              ...  17.61, 19.82, 19.27 au
Average spatial batch extension              ...   2.65,  2.67,  2.58 au

Final grid set up in    3.1 sec
Final integration                            ... done (  16.1 sec)
Change in XC energy                          ...    -0.000078420
Integrated number of electrons               ...    32.999997085
Previous integrated no of electrons          ...    33.001883917
Total Energy       :         -157.51863360 Eh           -4286.29993 eV
  Last Energy change         ...    1.8986e-11  Tolerance :   1.0000e-09
  Last MAX-Density change    ...    2.1994e-08  Tolerance :   1.0000e-08
             **** THE GBW FILE WAS UPDATED (orca7.gbw) ****
             **** DENSITY FILE WAS UPDATED (orca7.scfp) ****
             **** ENERGY FILE WAS UPDATED (orca7.en.tmp) ****
             **** THE GBW FILE WAS UPDATED (orca7.gbw) ****
             **** DENSITY FILE WAS UPDATED (orca7.scfp) ****
Total SCF time: 0 days 0 hours 10 min 26 sec 


-------------------------------------------------------------------------------
                          DFT DISPERSION CORRECTION                            
                                                                               
                              DFTD3 V3.1  Rev 1                                
                          USING Becke-Johnson damping                          
-------------------------------------------------------------------------------
-------------------------   ----------------
Dispersion correction           -0.014556344
-------------------------   ----------------


-------------------------   --------------------
FINAL SINGLE POINT ENERGY      -157.533189947076
-------------------------   --------------------

------------------------------------------------------------------------------
                         ORCA SCF GRADIENT CALCULATION
------------------------------------------------------------------------------

Gradient of the Kohn-Sham DFT energy:
Kohn-Sham wavefunction type      ... UKS
Hartree-Fock exchange scaling    ...    0.200
Number of operators              ...    2
Number of atoms                  ...   13
Basis set dimensions             ...   74
Integral neglect threshold       ... 1.0e-12
Integral primitive cutoff        ... 1.0e-14

Nuclear repulsion gradient       ... done
One Electron Gradient            ... done
Pre-screening matrix             ... done
Starting the two electron gradient:
Two electron gradient done
Exchange-correlation gradient    ... done
Dispersion correction            ... done

------------------
CARTESIAN GRADIENT
------------------

   1   C   :   -0.001799562   -0.010364819   -0.003065249
   2   C   :    0.004260716    0.030754601   -0.003086851
   3   C   :   -0.009630361    0.000320690    0.007416721
   4   C   :    0.009813519   -0.000455946    0.001751921
   5   H   :    0.004421517    0.001596665   -0.000603334
   6   H   :   -0.002329798   -0.010285625   -0.001326543
   7   H   :   -0.001363621   -0.012829404    0.002226457
   8   H   :    0.002549792   -0.000426373    0.000090747
   9   H   :   -0.000799267    0.000018594   -0.003618053
  10   H   :    0.002830892   -0.001839452   -0.001174185
  11   H   :   -0.005023705    0.001981166   -0.002803819
  12   H   :   -0.001250755   -0.001686347    0.001868131
  13   H   :   -0.001679366    0.003216249    0.002324055

Difference to translation invariance:
           :    0.0000000000    0.0000000000   -0.0000000000

Norm of the cartesian gradient     ...    0.0417680299
RMS gradient                       ...    0.0066882375
MAX gradient                       ...    0.0307546010

-------
TIMINGS
-------

Total SCF gradient time            ...        4.536 sec

One electron gradient       ....       0.025 sec  (  0.6%)
Prescreening matrices       ....       0.024 sec  (  0.5%)
Two electron gradient       ....       1.324 sec  ( 29.2%)
XC gradient                 ....       2.316 sec  ( 51.1%)
------------------------------------------------------------------------------
                         ORCA GEOMETRY RELAXATION STEP
------------------------------------------------------------------------------

Reading the OPT-File                    .... done
Getting information on internals        .... done
Copying old internal coords+grads       .... done
Making the new internal coordinates     .... (new redundants).... done
Validating the new internal coordinates .... (new redundants).... done
Calculating the B-matrix                .... done
Calculating the G,G- and P matrices     .... done
Transforming gradient to internals      .... done
Projecting the internal gradient        .... done
Number of atoms                         ....  13
Number of internal coordinates          ....  57
Current Energy                          ....  -157.533189947 Eh
Current gradient norm                   ....     0.041768030 Eh/bohr
Maximum allowed component of the step   ....  0.300
Current trust radius                    ....  0.300
Updating the Hessian (BFGS)             .... done
Forming the augmented Hessian           .... done
Diagonalizing the augmented Hessian     .... done
Last element of RFO vector              ....  0.943747545
Lowest eigenvalues of augmented Hessian:
 -0.008192946  0.012586074  0.013182875  0.013940282  0.074412202
Length of the computed step             ....  0.350376390
Warning: the length of the step is outside the trust region - taking restricted step instead
The input lambda is                     ....    -0.008193
   iter:   1  x=   -0.014056  g=    5.588620 f(x)=     0.032764
   iter:   2  x=   -0.016233  g=    3.384642 f(x)=     0.007370
   iter:   3  x=   -0.016415  g=    2.916083 f(x)=     0.000532
   iter:   4  x=   -0.016416  g=    2.881883 f(x)=     0.000003
   iter:   5  x=   -0.016416  g=    2.881682 f(x)=     0.000000
   iter:   6  x=   -0.016416  g=    2.881682 f(x)=    -0.000000
The output lambda is                    ....    -0.016416 (6 iterations)
The final length of the internal step   ....  0.300000000
Converting the step to cartesian space:
 Initial RMS(Int)=    0.0397359707
Transforming coordinates:
 Iter   0:  RMS(Cart)=    0.0608151613 RMS(Int)=    0.0400050226
 Iter   1:  RMS(Cart)=    0.0036296773 RMS(Int)=    0.0027537049
 Iter   2:  RMS(Cart)=    0.0002410373 RMS(Int)=    0.0002204122
 Iter   3:  RMS(Cart)=    0.0000347461 RMS(Int)=    0.0000278329
 Iter   4:  RMS(Cart)=    0.0000031846 RMS(Int)=    0.0000026615
 Iter   5:  RMS(Cart)=    0.0000004148 RMS(Int)=    0.0000003352
 Iter   6:  RMS(Cart)=    0.0000000439 RMS(Int)=    0.0000000366
done
Storing new coordinates                 .... done

                                .--------------------.
          ----------------------|Geometry convergence|-------------------------
          Item                value                   Tolerance       Converged
          ---------------------------------------------------------------------
          Energy change      -0.0127122489            0.0000050000      NO
          RMS gradient        0.0037386302            0.0001000000      NO
          MAX gradient        0.0111670594            0.0003000000      NO
          RMS step            0.0397359707            0.0020000000      NO
          MAX step            0.1144012655            0.0040000000      NO
          ........................................................
          Max(Bonds)      0.0086      Max(Angles)    4.63
          Max(Dihed)        6.55      Max(Improp)    0.00
          ---------------------------------------------------------------------

The optimization has not yet converged - more geometry cycles are needed


    ---------------------------------------------------------------------------
                         Redundant Internal Coordinates
                            (Angstroem and degrees)

        Definition                    Value    dE/dq     Step     New-Value
    ----------------------------------------------------------------------------
     1. B(C   1,C   0)                1.5140  0.002360 -0.0039    1.5101   
     2. B(C   2,C   0)                1.5325 -0.003538  0.0080    1.5405   
     3. B(C   3,C   0)                1.5478 -0.003684  0.0086    1.5564   
     4. B(H   4,C   0)                1.1103  0.001569 -0.0040    1.1063   
     5. B(H   5,C   1)                1.1062  0.000589 -0.0011    1.1051   
     6. B(H   6,C   1)                1.1070  0.002458 -0.0061    1.1009   
     7. B(H   7,C   2)                1.1051  0.000360 -0.0008    1.1043   
     8. B(H   8,C   2)                1.1101  0.001810 -0.0046    1.1055   
     9. B(H   9,C   2)                1.1059  0.000252 -0.0008    1.1051   
    10. B(H  10,C   3)                1.1045 -0.000053  0.0001    1.1046   
    11. B(H  11,C   3)                1.1086  0.001424 -0.0035    1.1050   
    12. B(H  12,C   3)                1.1040 -0.000329  0.0006    1.1046   
    13. A(C   1,C   0,H   4)          109.21 -0.000573   -0.16    109.05   
    14. A(C   2,C   0,H   4)          106.44 -0.000942    0.40    106.84   
    15. A(C   1,C   0,C   2)          113.20  0.003968   -1.08    112.12   
    16. A(C   1,C   0,C   3)          109.41 -0.001533    0.62    110.04   
    17. A(C   2,C   0,C   3)          109.17 -0.004204    1.56    110.72   
    18. A(C   3,C   0,H   4)          109.32  0.003404   -1.39    107.92   
    19. A(H   5,C   1,H   6)          109.68  0.001621    3.56    113.25   
    20. A(C   0,C   1,H   6)          112.60 -0.011167    4.63    117.23   
    21. A(C   0,C   1,H   5)          112.97 -0.009227    4.00    116.97   
    22. A(H   7,C   2,H   9)          108.54 -0.001771   -0.24    108.30   
    23. A(C   0,C   2,H   9)          112.73  0.003357   -1.15    111.57   
    24. A(H   7,C   2,H   8)          106.73 -0.000072    0.49    107.22   
    25. A(C   0,C   2,H   8)          108.27 -0.006083    2.08    110.35   
    26. A(H   8,C   2,H   9)          106.80  0.000274    0.36    107.16   
    27. A(C   0,C   2,H   7)          113.39  0.003898   -1.27    112.12   
    28. A(H  11,C   3,H  12)          105.87 -0.000687    0.79    106.66   
    29. A(H  10,C   3,H  12)          111.20  0.004276   -2.01    109.19   
    30. A(C   0,C   3,H  12)          109.41 -0.003890    0.95    110.36   
    31. A(H  10,C   3,H  11)          106.01 -0.001816    0.77    106.78   
    32. A(C   0,C   3,H  11)          112.16  0.001589   -0.07    112.09   
    33. A(C   0,C   3,H  10)          112.00  0.000670   -0.41    111.59   
    34. D(H   6,C   1,C   0,C   3)    -50.30  0.005565   -4.83    -55.13   
    35. D(H   6,C   1,C   0,H   4)     69.32  0.008446   -6.25     63.07   
    36. D(H   6,C   1,C   0,C   2)   -172.29  0.009366   -6.55   -178.85   
    37. D(H   5,C   1,C   0,H   4)   -165.74 -0.005803    3.38   -162.36   
    38. D(H   5,C   1,C   0,C   2)    -47.35 -0.004883    3.07    -44.28   
    39. D(H   5,C   1,C   0,C   3)     74.64 -0.008684    4.80     79.44   
    40. D(H   7,C   2,C   0,C   1)    -50.56 -0.002115    0.54    -50.02   
    41. D(H   9,C   2,C   0,C   1)     73.27  0.001284   -1.83     71.44   
    42. D(H   8,C   2,C   0,H   4)    -48.82  0.000672   -1.29    -50.10   
    43. D(H   8,C   2,C   0,C   1)   -168.80 -0.000326   -0.71   -169.51   
[...]

             **** THE GBW FILE WAS UPDATED (orca7.gbw) ****
             **** DENSITY FILE WAS UPDATED (orca7.scfp) ****
             **** ENERGY FILE WAS UPDATED (orca7.en.tmp) ****
             **** THE GBW FILE WAS UPDATED (orca7.gbw) ****
             **** DENSITY FILE WAS UPDATED (orca7.scfp) ****
----------------
ORBITAL ENERGIES
----------------
                 SPIN UP ORBITALS
  NO   OCC          E(Eh)            E(eV) 
   0   1.0000     -10.187399      -277.2132 
   1   1.0000     -10.179539      -276.9993 
   2   1.0000     -10.170043      -276.7409 
   3   1.0000     -10.167332      -276.6672 
   4   1.0000      -0.793139       -21.5824 
   5   1.0000      -0.671077       -18.2609 
   6   1.0000      -0.661127       -17.9902 
   7   1.0000      -0.549751       -14.9595 
   8   1.0000      -0.461516       -12.5585 
   9   1.0000      -0.432188       -11.7604 
  10   1.0000      -0.422120       -11.4865 
  11   1.0000      -0.386359       -10.5134 
  12   1.0000      -0.377054       -10.2602 
  13   1.0000      -0.344843        -9.3836 
  14   1.0000      -0.339149        -9.2287 
  15   1.0000      -0.327813        -8.9202 
  16   1.0000      -0.201470        -5.4823 
  17   0.0000       0.059154         1.6096 
  18   0.0000       0.098515         2.6807 
  19   0.0000       0.105942         2.8828 
  20   0.0000       0.113106         3.0778 
  21   0.0000       0.122970         3.3462 
  22   0.0000       0.140386         3.8201 
  23   0.0000       0.144925         3.9436 
  24   0.0000       0.164534         4.4772 
  25   0.0000       0.175519         4.7761 
  26   0.0000       0.209313         5.6957 
  27   0.0000       0.245992         6.6938 
  28   0.0000       0.260050         7.0763 
  29   0.0000       0.398137        10.8339 
  30   0.0000       0.419505        11.4153 
  31   0.0000       0.426504        11.6058 
  32   0.0000       0.446570        12.1518 
  33   0.0000       0.476205        12.9582 
  34   0.0000       0.502305        13.6684 
  35   0.0000       0.574251        15.6262 
  36   0.0000       0.603810        16.4305 
  37   0.0000       0.642688        17.4884 
  38   0.0000       0.661501        18.0004 
  39   0.0000       0.664437        18.0803 
  40   0.0000       0.665540        18.1103 
  41   0.0000       0.694463        18.8973 
  42   0.0000       0.702511        19.1163 
  43   0.0000       0.705392        19.1947 
  44   0.0000       0.709640        19.3103 
  45   0.0000       0.722304        19.6549 
  46   0.0000       0.725323        19.7370 
  47   0.0000       0.737783        20.0761 
  48   0.0000       0.752757        20.4836 
  49   0.0000       0.756062        20.5735 
  50   0.0000       0.856455        23.3053 
  51   0.0000       0.937316        25.5057 
  52   0.0000       1.038277        28.2530 
  53   0.0000       1.088727        29.6258 
  54   0.0000       1.398433        38.0533 
  55   0.0000       1.521820        41.4108 
  56   0.0000       1.670921        45.4681 
  57   0.0000       1.742509        47.4161 
  58   0.0000       1.754844        47.7517 
  59   0.0000       1.816896        49.4402 
  60   0.0000       1.908724        51.9390 
  61   0.0000       1.935744        52.6743 
  62   0.0000       1.978806        53.8461 
  63   0.0000       2.018172        54.9173 
  64   0.0000       2.046744        55.6947 
  65   0.0000       2.077131        56.5216 
  66   0.0000       2.139689        58.2239 
  67   0.0000       2.146629        58.4128 
  68   0.0000       2.176251        59.2188 
  69   0.0000       2.423067        65.9350 
  70   0.0000       2.432059        66.1797 
  71   0.0000       2.498298        67.9821 
  72   0.0000       2.670977        72.6810 
  73   0.0000       2.681993        72.9807 

                 SPIN DOWN ORBITALS
  NO   OCC          E(Eh)            E(eV) 
   0   1.0000     -10.188323      -277.2384 
   1   1.0000     -10.168573      -276.7009 
   2   1.0000     -10.167152      -276.6623 
   3   1.0000     -10.164871      -276.6002 
   4   1.0000      -0.785769       -21.3819 
   5   1.0000      -0.669358       -18.2142 
   6   1.0000      -0.637257       -17.3406 
   7   1.0000      -0.540972       -14.7206 
   8   1.0000      -0.456893       -12.4327 
   9   1.0000      -0.429419       -11.6851 
  10   1.0000      -0.415358       -11.3025 
  11   1.0000      -0.383683       -10.4406 
  12   1.0000      -0.373564       -10.1652 
  13   1.0000      -0.337941        -9.1958 
  14   1.0000      -0.334649        -9.1063 
  15   1.0000      -0.325461        -8.8562 
  16   0.0000      -0.044634        -1.2146 
  17   0.0000       0.060753         1.6532 
  18   0.0000       0.099872         2.7177 
  19   0.0000       0.111802         3.0423 
  20   0.0000       0.116944         3.1822 
  21   0.0000       0.125472         3.4143 
  22   0.0000       0.141557         3.8520 
  23   0.0000       0.147024         4.0007 
  24   0.0000       0.165764         4.5107 
  25   0.0000       0.177293         4.8244 
  26   0.0000       0.212769         5.7897 
  27   0.0000       0.247690         6.7400 
  28   0.0000       0.268199         7.2981 
  29   0.0000       0.400722        10.9042 
  30   0.0000       0.423971        11.5368 
  31   0.0000       0.432903        11.7799 
  32   0.0000       0.450862        12.2686 
  33   0.0000       0.483937        13.1686 
  34   0.0000       0.547551        14.8996 
  35   0.0000       0.594379        16.1739 
  36   0.0000       0.613435        16.6924 
  37   0.0000       0.647756        17.6263 
  38   0.0000       0.665849        18.1187 
  39   0.0000       0.666334        18.1319 
  40   0.0000       0.673641        18.3307 
  41   0.0000       0.697500        18.9799 
  42   0.0000       0.704166        19.1613 
  43   0.0000       0.709517        19.3070 
  44   0.0000       0.713717        19.4212 
  45   0.0000       0.724328        19.7100 
  46   0.0000       0.730046        19.8656 
  47   0.0000       0.743246        20.2248 
  48   0.0000       0.755296        20.5527 
  49   0.0000       0.763330        20.7713 
  50   0.0000       0.862353        23.4658 
  51   0.0000       0.943151        25.6644 
  52   0.0000       1.040228        28.3060 
  53   0.0000       1.092360        29.7246 
  54   0.0000       1.409228        38.3470 
  55   0.0000       1.526743        41.5448 
  56   0.0000       1.722590        46.8741 
  57   0.0000       1.745882        47.5079 
  58   0.0000       1.778772        48.4029 
  59   0.0000       1.830949        49.8227 
  60   0.0000       1.923238        52.3340 
  61   0.0000       1.940242        52.7967 
  62   0.0000       1.987568        54.0845 
  63   0.0000       2.048388        55.7395 
  64   0.0000       2.076790        56.5123 
  65   0.0000       2.090741        56.8920 
  66   0.0000       2.143333        58.3230 
  67   0.0000       2.147917        58.4478 
  68   0.0000       2.183194        59.4077 
  69   0.0000       2.427101        66.0448 
  70   0.0000       2.443891        66.5016 
  71   0.0000       2.503031        68.1109 
  72   0.0000       2.678652        72.8898 
  73   0.0000       2.685774        73.0836 

                    ********************************
                    * MULLIKEN POPULATION ANALYSIS *
                    ********************************

------------------------------------------
FOD BASED MULLIKEN REDUCED ORBITAL CHARGES
------------------------------------------
  0 C s       :    -0.000000  s :    -0.000000
      pz      :     0.000000  p :     0.000000
      px      :     0.000000
      py      :     0.000000
      dz2     :     0.000000  d :     0.000000
      dxz     :     0.000000
      dyz     :     0.000000
      dx2y2   :     0.000000
      dxy     :     0.000000
  1 C s       :    -0.000000  s :    -0.000000
      pz      :     0.000000  p :     0.000000
      px      :     0.000000
      py      :     0.000000
      dz2     :     0.000000  d :     0.000000
      dxz     :     0.000000
      dyz     :     0.000000
      dx2y2   :     0.000000
      dxy     :     0.000000
  2 C s       :    -0.000000  s :    -0.000000
      pz      :     0.000000  p :     0.000000
      px      :     0.000000
      py      :     0.000000
      dz2     :     0.000000  d :     0.000000
      dxz     :     0.000000
      dyz     :     0.000000
      dx2y2   :     0.000000
      dxy     :     0.000000
  3 C s       :    -0.000000  s :    -0.000000
      pz      :     0.000000  p :     0.000000
      px      :     0.000000
      py      :     0.000000
      dz2     :     0.000000  d :     0.000000
      dxz     :     0.000000
      dyz     :     0.000000
      dx2y2   :     0.000000
      dxy     :     0.000000
  4 H s       :     0.000000  s :     0.000000
  5 H s       :     0.000000  s :     0.000000
  6 H s       :     0.000000  s :     0.000000
  7 H s       :     0.000000  s :     0.000000
  8 H s       :     0.000000  s :     0.000000
  9 H s       :     0.000000  s :     0.000000
 10 H s       :     0.000000  s :     0.000000
 11 H s       :     0.000000  s :     0.000000
 12 H s       :     0.000000  s :     0.000000


                     *******************************
                     * LOEWDIN POPULATION ANALYSIS *
                     *******************************

-------------------------------------------
LOEWDIN ATOMIC CHARGES AND SPIN POPULATIONS
-------------------------------------------
   0 C :   -0.159464   -0.012984
   1 C :   -0.221381    0.978678
   2 C :   -0.308616    0.007155
   3 C :   -0.307376    0.049272
   4 H :    0.113378    0.021251
   5 H :    0.113289   -0.026250
   6 H :    0.111336   -0.025867
   7 H :    0.111574    0.000537
   8 H :    0.109913   -0.000090
   9 H :    0.108999   -0.000151
  10 H :    0.108934    0.008250
  11 H :    0.110007    0.000028
  12 H :    0.109407    0.000170

----------------------------------------------------
LOEWDIN REDUCED ORBITAL CHARGES AND SPIN POPULATIONS
----------------------------------------------------
CHARGE
  0 C s       :     2.876449  s :     2.876449
      pz      :     1.071003  p :     3.171652
      px      :     1.053626
      py      :     1.047022
      dz2     :     0.021297  d :     0.111364
      dxz     :     0.020043
      dyz     :     0.021560
      dx2y2   :     0.029537
      dxy     :     0.018927
  1 C s       :     3.017375  s :     3.017375
      pz      :     1.079021  p :     3.147202
      px      :     1.061455
      py      :     1.006726
      dz2     :     0.020803  d :     0.056804
      dxz     :     0.014148
      dyz     :     0.005091
      dx2y2   :     0.010909
      dxy     :     0.005854
  2 C s       :     2.956411  s :     2.956411
      pz      :     1.107519  p :     3.279393
      px      :     1.061581
      py      :     1.110293
      dz2     :     0.015083  d :     0.072812
      dxz     :     0.015771
      dyz     :     0.011377
      dx2y2   :     0.018403
      dxy     :     0.012178
  3 C s       :     2.963758  s :     2.963758
      pz      :     1.110717  p :     3.271213
      px      :     1.106827
      py      :     1.053668
      dz2     :     0.010022  d :     0.072405
      dxz     :     0.013885
      dyz     :     0.019238
      dx2y2   :     0.018911
      dxy     :     0.010349
  4 H s       :     0.886622  s :     0.886622
  5 H s       :     0.886711  s :     0.886711
  6 H s       :     0.888664  s :     0.888664
  7 H s       :     0.888426  s :     0.888426
  8 H s       :     0.890087  s :     0.890087
  9 H s       :     0.891001  s :     0.891001
 10 H s       :     0.891066  s :     0.891066
 11 H s       :     0.889993  s :     0.889993
 12 H s       :     0.890593  s :     0.890593

SPIN
  0 C s       :    -0.005163  s :    -0.005163
      pz      :    -0.009305  p :    -0.024451
      px      :    -0.009347
      py      :    -0.005799
      dz2     :     0.003289  d :     0.016630
      dxz     :     0.001561
      dyz     :     0.003190
      dx2y2   :     0.007663
      dxy     :     0.000926
  1 C s       :     0.039927  s :     0.039927
      pz      :     0.066570  p :     0.942620
      px      :     0.115204
      py      :     0.760847
      dz2     :    -0.001091  d :    -0.003869
      dxz     :    -0.000599
      dyz     :    -0.000345
      dx2y2   :    -0.001036
      dxy     :    -0.000799
  2 C s       :     0.001377  s :     0.001377
      pz      :     0.001188  p :     0.005958
      px      :     0.002915
      py      :     0.001854
      dz2     :     0.000064  d :    -0.000179
      dxz     :    -0.000082
      dyz     :     0.000101
      dx2y2   :    -0.000069
      dxy     :    -0.000193
  3 C s       :     0.016580  s :     0.016580
      pz      :     0.003059  p :     0.032243
      px      :     0.001941
      py      :     0.027244
      dz2     :     0.000042  d :     0.000449
      dxz     :     0.000458
      dyz     :    -0.000130
      dx2y2   :    -0.000099
      dxy     :     0.000177
  4 H s       :     0.021251  s :     0.021251
  5 H s       :    -0.026250  s :    -0.026250
  6 H s       :    -0.025867  s :    -0.025867
  7 H s       :     0.000537  s :     0.000537
  8 H s       :    -0.000090  s :    -0.000090
  9 H s       :    -0.000151  s :    -0.000151
 10 H s       :     0.008250  s :     0.008250
 11 H s       :     0.000028  s :     0.000028
 12 H s       :     0.000170  s :     0.000170


                      *****************************
                      * MAYER POPULATION ANALYSIS *
                      *****************************

  NA   - Mulliken gross atomic population
  ZA   - Total nuclear charge
  QA   - Mulliken gross atomic charge
  VA   - Mayer's total valence
  BVA  - Mayer's bonded valence
  FA   - Mayer's free valence

  ATOM       NA         ZA         QA         VA         BVA        FA
  0 C      6.0916     6.0000    -0.0916     4.1938     4.1906     0.0032
  1 C      6.2363     6.0000    -0.2363     3.8909     2.9993     0.8916
  2 C      6.2440     6.0000    -0.2440     3.9580     3.9579     0.0000
  3 C      6.2335     6.0000    -0.2335     3.9384     3.9365     0.0019
  4 H      0.9304     1.0000     0.0696     0.9378     0.9372     0.0006
  5 H      0.8984     1.0000     0.1016     0.9557     0.9529     0.0029
  6 H      0.9001     1.0000     0.0999     0.9499     0.9471     0.0028
  7 H      0.9051     1.0000     0.0949     0.9546     0.9546     0.0000
  8 H      0.9112     1.0000     0.0888     0.9577     0.9577     0.0000
  9 H      0.9146     1.0000     0.0854     0.9621     0.9621     0.0000
 10 H      0.9108     1.0000     0.0892     0.9570     0.9568     0.0002
 11 H      0.9107     1.0000     0.0893     0.9584     0.9584     0.0000
 12 H      0.9133     1.0000     0.0867     0.9640     0.9640     0.0000

  Mayer bond orders larger than 0.100000
B(  0-C ,  1-C ) :   1.0829 B(  0-C ,  2-C ) :   1.0922 B(  0-C ,  3-C ) :   1.0758 
B(  0-C ,  4-H ) :   0.9107 B(  1-C ,  5-H ) :   0.9416 B(  1-C ,  6-H ) :   0.9405 
B(  2-C ,  7-H ) :   0.9601 B(  2-C ,  8-H ) :   0.9585 B(  2-C ,  9-H ) :   0.9564 
B(  3-C , 10-H ) :   0.9539 B(  3-C , 11-H ) :   0.9593 B(  3-C , 12-H ) :   0.9575 


-------
TIMINGS
-------

Total SCF time: 0 days 0 hours 4 min 37 sec 

Total time                  ....     277.581 sec
Sum of individual times     ....     227.574 sec  ( 82.0%)

Fock matrix formation       ....     185.957 sec  ( 67.0%)
  XC integration            ....      97.038 sec  ( 52.2% of F)
    Basis function eval.    ....       0.522 sec  (  0.5% of XC)
    Density eval.           ....       0.359 sec  (  0.4% of XC)
    XC-Functional eval.     ....       0.226 sec  (  0.2% of XC)
    XC-Potential eval.      ....       0.514 sec  (  0.5% of XC)
Diagonalization             ....       7.340 sec  (  2.6%)
Density matrix formation    ....      14.103 sec  (  5.1%)
Population analysis         ....      11.003 sec  (  4.0%)
Initial guess               ....       0.004 sec  (  0.0%)
Orbital Transformation      ....       0.000 sec  (  0.0%)
Orbital Orthonormalization  ....       0.001 sec  (  0.0%)
DIIS solution               ....       4.246 sec  (  1.5%)
Grid generation             ....       4.922 sec  (  1.8%)


-------------------------------------------------------------------------------
                          DFT DISPERSION CORRECTION                            
                                                                               
                              DFTD3 V3.1  Rev 1                                
                          USING Becke-Johnson damping                          
-------------------------------------------------------------------------------
The B3LYP functional is recognized
Active option DFTDOPT                   ...         4   

molecular C6(AA) [au] = 1132.635242 


            DFT-D V3
 parameters
 s6 scaling factor         :     1.0000 
 a1 scaling factor         :     0.3981 
 s8 scaling factor         :     1.9889 
 a2 scaling factor         :     4.4211 
 ad hoc parameters k1-k3   :    16.0000     1.3333    -4.0000 

 Edisp/kcal,au: -9.028758831884  -0.014388241520 
 E6   /kcal   :  -4.469016993 
 E8   /kcal   :  -4.559741839 
 % E8         :  50.502421467 

-------------------------   ----------------
Dispersion correction           -0.014388242
-------------------------   ----------------


-------------------------   --------------------
FINAL SINGLE POINT ENERGY      -157.545008058428
-------------------------   --------------------

                                *** OPTIMIZATION RUN DONE ***

                            ***************************************
                            *     ORCA property calculations      *
                            ***************************************

                                    ---------------------
                                    Active property flags
                                    ---------------------
   (+) Dipole Moment


------------------------------------------------------------------------------
                       ORCA ELECTRIC PROPERTIES CALCULATION
------------------------------------------------------------------------------

Dipole Moment Calculation                       ... on
Quadrupole Moment Calculation                   ... off
Polarizability Calculation                      ... off
GBWName                                         ... orca7.gbw
Electron density file                           ... orca7.scfp
The origin for moment calculation is the CENTER OF MASS  = ( 0.019427, -0.146136 -0.046791)

-------------
DIPOLE MOMENT
-------------
                                X             Y             Z
Electronic contribution:     -0.79478       1.02325      -0.06280
Nuclear contribution   :      0.81844      -1.08299       0.00162
                        -----------------------------------------
Total Dipole Moment    :      0.02366      -0.05975      -0.06119
                        -----------------------------------------
Magnitude (a.u.)       :      0.08873
Magnitude (Debye)      :      0.22554



--------------------
Rotational spectrum 
--------------------
 
Rotational constants in cm-1:     0.274885     0.261784     0.154877 
Rotational constants in MHz :  8240.831657  7848.091668  4643.103599 

 Dipole components along the rotational axes: 
x,y,z [a.u.] :    -0.028399    -0.079787    -0.026472 
x,y,z [Debye]:    -0.072184    -0.202803    -0.067286 

 

Timings for individual modules:

Sum of individual times         ...     6886.537 sec (= 114.776 min)
GTO integral calculation        ...      127.806 sec (=   2.130 min)   1.9 %
SCF iterations                  ...     6591.503 sec (= 109.858 min)  95.7 %
SCF Gradient evaluation         ...       82.542 sec (=   1.376 min)   1.2 %
Geometry relaxation             ...       84.686 sec (=   1.411 min)   1.2 %
                             ****ORCA TERMINATED NORMALLY****
TOTAL RUN TIME: 0 days 1 hours 59 minutes 30 seconds 717 msec
