
                                 *****************
                                 * O   R   C   A *
                                 *****************

           --- An Ab Initio, DFT and Semiempirical electronic structure package ---

                  #######################################################
                  #                        -***-                        #
                  #          Department of theory and spectroscopy      #
                  #               Directorship: Frank Neese             #
                  #        Max Planck Institute fuer Kohlenforschung    #
                  #                Kaiser Wilhelm Platz 1               #
                  #                 D-45470 Muelheim/Ruhr               #
                  #                      Germany                        #
                  #                                                     #
                  #                  All rights reserved                #
                  #                        -***-                        #
                  #######################################################


                         Program Version 4.2.1 -  RELEASE  -


 With contributions from (in alphabetic order):
   Daniel Aravena         : Magnetic Suceptibility
   Michael Atanasov       : Ab Initio Ligand Field Theory (pilot matlab implementation)
   Alexander A. Auer      : GIAO ZORA, VPT2
   Ute Becker             : Parallelization
   Giovanni Bistoni       : ED, misc. LED, open-shell LED, HFLD
   Martin Brehm           : Molecular dynamics
   Dmytro Bykov           : SCF Hessian
   Vijay G. Chilkuri      : MRCI spin determinant printing, contributions to CSF-ICE
   Dipayan Datta          : RHF DLPNO-CCSD density
   Achintya Kumar Dutta   : EOM-CC, STEOM-CC
   Dmitry Ganyushin       : Spin-Orbit,Spin-Spin,Magnetic field MRCI
   Miquel Garcia          : C-PCM Hessian, Gaussian charge scheme
   Yang Guo               : DLPNO-NEVPT2, CIM, IAO-localization
   Andreas Hansen         : Spin unrestricted coupled pair/coupled cluster methods
   Benjamin Helmich-Paris : CASSCF linear response (MC-RPA)
   Lee Huntington         : MR-EOM, pCC
   Robert Izsak           : Overlap fitted RIJCOSX, COSX-SCS-MP3, EOM
   Christian Kollmar      : KDIIS, OOCD, Brueckner-CCSD(T), CCSD density
   Simone Kossmann        : Meta GGA functionals, TD-DFT gradient, OOMP2, MP2 Hessian
   Martin Krupicka        : AUTO-CI
   Lucas Lang             : DCDCAS
   Dagmar Lenk            : GEPOL surface, SMD
   Dimitrios Liakos       : Extrapolation schemes; Compound Job, initial MDCI parallelization
   Dimitrios Manganas     : Further ROCIS development; embedding schemes
   Dimitrios Pantazis     : SARC Basis sets
   Taras Petrenko         : DFT Hessian,TD-DFT gradient, ASA, ECA, R-Raman, ABS, FL, XAS/XES, NRVS
   Peter Pinski           : DLPNO-MP2, DLPNO-MP2 Gradient
   Christoph Reimann      : Effective Core Potentials
   Marius Retegan         : Local ZFS, SOC
   Christoph Riplinger    : Optimizer, TS searches, QM/MM, DLPNO-CCSD(T), (RO)-DLPNO pert. Triples
   Tobias Risthaus        : Range-separated hybrids, TD-DFT gradient, RPA, STAB
   Michael Roemelt        : Original ROCIS implementation
   Masaaki Saitow         : Open-shell DLPNO-CCSD energy and density
   Barbara Sandhoefer     : DKH picture change effects
   Avijit Sen             : IP-ROCIS
   Kantharuban Sivalingam : CASSCF convergence, NEVPT2, FIC-MRCI
   Bernardo de Souza      : ESD, SOC TD-DFT
   Georgi Stoychev        : AutoAux, RI-MP2 NMR
   Willem Van den Heuvel  : Paramagnetic NMR
   Boris Wezisla          : Elementary symmetry handling
   Frank Wennmohs         : Technical directorship


 We gratefully acknowledge several colleagues who have allowed us to
 interface, adapt or use parts of their codes:
   Stefan Grimme, W. Hujo, H. Kruse,             : VdW corrections, initial TS optimization,
                  C. Bannwarth                     DFT functionals, gCP, sTDA/sTD-DF
   Ed Valeev, F. Pavosevic, A. Kumar             : LibInt (2-el integral package), F12 methods
   Garnet Chan, S. Sharma, J. Yang, R. Olivares  : DMRG
   Ulf Ekstrom                                   : XCFun DFT Library
   Mihaly Kallay                                 : mrcc  (arbitrary order and MRCC methods)
   Andreas Klamt, Michael Diedenhofen            : otool_cosmo (COSMO solvation model)
   Jiri Pittner, Ondrej Demel                    : Mk-CCSD
   Frank Weinhold                                : gennbo (NPA and NBO analysis)
   Christopher J. Cramer and Donald G. Truhlar   : smd solvation model
   Lars Goerigk                                  : TD-DFT with DH, B97 family of functionals
   V. Asgeirsson, H. Jonsson                     : NEB implementation
   FAccTs GmbH                                   : IRC, NEB, NEB-TS, Multilevel, MM, QM/MM, CI optimization
   S Lehtola, MJT Oliveira, MAL Marques          : LibXC Library


 Your calculation uses the libint2 library for the computation of 2-el integrals
 For citations please refer to: http://libint.valeyev.net

 Your ORCA version has been built with support for libXC version: 4.2.3
 For citations please refer to: https://tddft.org/programs/libxc/

 This ORCA versions uses:
   CBLAS   interface :  Fast vector & matrix operations
   LAPACKE interface :  Fast linear algebra routines
   SCALAPACK package :  Parallel linear algebra routines


Your calculation utilizes the atom-pairwise dispersion correction
with the Becke-Johnson damping scheme (D3BJ)
Cite in your paper:
S.Grimme, S.Ehrlich, L.Goerigk, J Comput Chem, (2011), 32, 1456–1465 
S.Grimme, J.Antony, S.Ehrlich and H.Krieg, J.Chem.Phys., 132, (2010), 154104 
   

----- Orbital basis set information -----
Your calculation utilizes the basis: def2-SV(P)
   F. Weigend and R. Ahlrichs, Phys. Chem. Chem. Phys. 7, 3297 (2005).

----- AuxJ basis set information -----
Your calculation utilizes the auxiliary basis: def2/J
   F. Weigend, Phys. Chem. Chem. Phys. 8, 1057 (2006).

================================================================================
                                        WARNINGS
                       Please study these warnings very carefully!
================================================================================


WARNING: Geometry Optimization
  ===> : Switching off AutoStart
         For restart on a previous wavefunction, please use MOREAD

INFO   : the flag for use of LIBINT has been found!

================================================================================
                                       INPUT FILE
================================================================================
NAME = orca2.inp
|  1> ! UKS B3LYP def2-SV(P) def2/J D3BJ Opt
|  2> %scf Convergence VeryTight
|  3> SmearTemp 2000
|  4> maxiter 500
|  5> end
|  6> *xyz 0 2
|  7> C -0.013531 0.080692 -0.405817
|  8> C 1.100578 -0.893964 -0.035812
|  9> C 0.258437 1.320463 0.415014
| 10> C -1.378238 -0.501209 -0.149636
| 11> H 0.086033 0.318044 -1.495565
| 12> H 2.04364 -0.440969 -0.376977
| 13> H 0.854804 -1.845263 -0.529144
| 14> H -0.618758 1.9544 0.57079
| 15> H 1.094952 1.851714 -0.105926
| 16> H 0.651839 1.063777 1.425385
| 17> H -1.896545 -0.692155 -1.123748
| 18> H -1.336756 -1.494497 0.355981
| 19> H -2.006439 0.232899 0.388696
| 20> *
| 21> 
| 22>                          ****END OF INPUT****
================================================================================

                       *****************************
                       * Geometry Optimization Run *
                       *****************************

Geometry optimization settings:
Update method            Update   .... BFGS
Choice of coordinates    CoordSys .... Z-matrix Internals
Initial Hessian          InHess   .... Almoef's Model

Convergence Tolerances:
Energy Change            TolE     ....  5.0000e-06 Eh
Max. Gradient            TolMAXG  ....  3.0000e-04 Eh/bohr
RMS Gradient             TolRMSG  ....  1.0000e-04 Eh/bohr
Max. Displacement        TolMAXD  ....  4.0000e-03 bohr
RMS Displacement         TolRMSD  ....  2.0000e-03 bohr
Strict Convergence                ....  False
------------------------------------------------------------------------------
                        ORCA OPTIMIZATION COORDINATE SETUP
------------------------------------------------------------------------------

The optimization will be done in new redundant internal coordinates
Making redundant internal coordinates   ...  (new redundants) done
Evaluating the initial hessian          ...  (Almloef) done
Evaluating the coordinates              ...  done
Calculating the B-matrix                .... done
Calculating the G-matrix                .... done
Diagonalizing the G-matrix              .... done
The first mode is                       ....   24
The number of degrees of freedom        ....   33

    -----------------------------------------------------------------
                    Redundant Internal Coordinates


    -----------------------------------------------------------------
         Definition                    Initial Value    Approx d2E/dq
    -----------------------------------------------------------------
      1. B(C   1,C   0)                  1.5258         0.379369   
      2. B(C   2,C   0)                  1.5115         0.399783   
      3. B(C   3,C   0)                  1.5055         0.408691   
      4. B(H   4,C   0)                  1.1197         0.322840   
      5. B(H   5,C   1)                  1.1004         0.346553   
      6. B(H   6,C   1)                  1.0994         0.347836   
      7. B(H   7,C   2)                  1.0934         0.355577   
      8. B(H   8,C   2)                  1.1195         0.323071   
      9. B(H   9,C   2)                  1.1142         0.329435   
     10. B(H  10,C   3)                  1.1198         0.322736   
     11. B(H  11,C   3)                  1.1153         0.328088   
     12. B(H  12,C   3)                  1.1061         0.339478   
     13. A(C   1,C   0,H   4)          107.8473         0.319374   
     14. A(C   2,C   0,H   4)          109.7941         0.322123   
     15. A(C   1,C   0,C   2)          105.1213         0.368567   
     16. A(C   1,C   0,C   3)          111.9450         0.369965   
     17. A(C   2,C   0,C   3)          112.8118         0.373317   
     18. A(C   3,C   0,H   4)          109.1553         0.323289   
     19. A(H   5,C   1,H   6)          114.1200         0.287532   
     20. A(C   0,C   1,H   6)          106.3003         0.323295   
     21. A(C   0,C   1,H   5)          106.7154         0.323099   
     22. A(H   7,C   2,H   9)          106.7156         0.286249   
     23. A(C   0,C   2,H   9)          111.5308         0.323192   
     24. A(H   7,C   2,H   8)          112.9921         0.285380   
     25. A(C   0,C   2,H   8)          105.7216         0.322161   
     26. A(H   8,C   2,H   9)          105.5125         0.282015   
     27. A(C   0,C   2,H   7)          114.1134         0.327275   
     28. A(H  11,C   3,H  12)          113.0521         0.284010   
     29. A(H  10,C   3,H  12)          105.8831         0.283286   
     30. A(C   0,C   3,H  12)          109.9453         0.325969   
     31. A(H  10,C   3,H  11)          105.0524         0.281791   
     32. A(C   0,C   3,H  11)          112.8073         0.324145   
     33. A(C   0,C   3,H  10)          109.7209         0.323272   
     34. D(H   6,C   1,C   0,C   3)     50.5560         0.010742   
     35. D(H   6,C   1,C   0,H   4)    -69.5350         0.010742   
     36. D(H   6,C   1,C   0,C   2)    173.3662         0.010742   
     37. D(H   5,C   1,C   0,H   4)     52.6303         0.010742   
     38. D(H   5,C   1,C   0,C   2)    -64.4685         0.010742   
     39. D(H   5,C   1,C   0,C   3)    172.7214         0.010742   
     40. D(H   7,C   2,C   0,C   1)   -157.6581         0.012681   
     41. D(H   9,C   2,C   0,C   1)    -36.6372         0.012681   
     42. D(H   8,C   2,C   0,H   4)    -38.2124         0.012681   
     43. D(H   8,C   2,C   0,C   1)     77.5515         0.012681   
     44. D(H   7,C   2,C   0,H   4)     86.5780         0.012681   
     45. D(H   7,C   2,C   0,C   3)    -35.4075         0.012681   
     46. D(H   9,C   2,C   0,C   3)     85.6134         0.012681   
     47. D(H   9,C   2,C   0,H   4)   -152.4011         0.012681   
     48. D(H   8,C   2,C   0,C   3)   -160.1978         0.012681   
     49. D(H  12,C   3,C   0,H   4)   -107.8076         0.013234   
     50. D(H  12,C   3,C   0,C   1)    132.8685         0.013234   
     51. D(H  11,C   3,C   0,H   4)    125.0006         0.013234   
     52. D(H  11,C   3,C   0,C   2)   -112.6547         0.013234   
     53. D(H  11,C   3,C   0,C   1)      5.6767         0.013234   
     54. D(H  10,C   3,C   0,H   4)      8.2556         0.013234   
     55. D(H  12,C   3,C   0,C   2)     14.5371         0.013234   
     56. D(H  10,C   3,C   0,C   2)    130.6003         0.013234   
     57. D(H  10,C   3,C   0,C   1)   -111.0683         0.013234   
    -----------------------------------------------------------------

Number of atoms                         .... 13
Number of degrees of freedom            .... 57

Time needed for optimization step       :     1.33 sec

         *************************************************************
         *                GEOMETRY OPTIMIZATION CYCLE   1            *
         *************************************************************
---------------------------------
CARTESIAN COORDINATES (ANGSTROEM)
---------------------------------
  C     -0.013531    0.080692   -0.405817
  C      1.100578   -0.893964   -0.035812
  C      0.258437    1.320463    0.415014
  C     -1.378238   -0.501209   -0.149636
  H      0.086033    0.318044   -1.495565
  H      2.043640   -0.440969   -0.376977
  H      0.854804   -1.845263   -0.529144
  H     -0.618758    1.954400    0.570790
  H      1.094952    1.851714   -0.105926
  H      0.651839    1.063777    1.425385
  H     -1.896545   -0.692155   -1.123748
  H     -1.336756   -1.494497    0.355981
  H     -2.006439    0.232899    0.388696

----------------------------
CARTESIAN COORDINATES (A.U.)
----------------------------
  NO LB      ZA    FRAG     MASS         X           Y           Z
   0 C     6.0000    0    12.011   -0.025570    0.152486   -0.766883
   1 C     6.0000    0    12.011    2.079791   -1.689347   -0.067675
   2 C     6.0000    0    12.011    0.488375    2.495313    0.784263
   3 C     6.0000    0    12.011   -2.604492   -0.947148   -0.282771
   4 H     1.0000    0     1.008    0.162579    0.601016   -2.826208
   5 H     1.0000    0     1.008    3.861920   -0.833311   -0.712383
   6 H     1.0000    0     1.008    1.615345   -3.487042   -0.999937
   7 H     1.0000    0     1.008   -1.169283    3.693281    1.078637
   8 H     1.0000    0     1.008    2.069159    3.499232   -0.200171
   9 H     1.0000    0     1.008    1.231797    2.010247    2.693587
  10 H     1.0000    0     1.008   -3.583951   -1.307983   -2.123576
  11 H     1.0000    0     1.008   -2.526103   -2.824190    0.672707
  12 H     1.0000    0     1.008   -3.791620    0.440115    0.734529

--------------------------------
INTERNAL COORDINATES (ANGSTROEM)
--------------------------------
 C      0   0   0     0.000000000000     0.00000000     0.00000000
 C      1   0   0     1.525810237953     0.00000000     0.00000000
 C      1   2   0     1.511543005020   105.12130362     0.00000000
 C      1   2   3     1.505543979567   111.94497505   237.18980972
 H      1   2   3     1.119731961455   107.84733190   117.09879503
 H      2   1   3     1.100438077810   106.71536795   295.53154483
 H      2   1   3     1.099432175580   106.30034026   173.36619127
 H      3   1   2     1.093441059303   114.11336044   202.34192611
 H      3   1   2     1.119537160538   105.72157426    77.55153214
 H      3   1   2     1.114227263103   111.53080745   323.36282183
 H      4   1   2     1.119819945218   109.72086947   248.93167747
 H      4   1   2     1.115343157040   112.80734756     5.67672109
 H      4   1   2     1.106052618228   109.94533839   132.86852033

---------------------------
INTERNAL COORDINATES (A.U.)
---------------------------
 C      0   0   0     0.000000000000     0.00000000     0.00000000
 C      1   0   0     2.883363482064     0.00000000     0.00000000
 C      1   2   0     2.856402319133   105.12130362     0.00000000
 C      1   2   3     2.845065803956   111.94497505   237.18980972
 H      1   2   3     2.115986750549   107.84733190   117.09879503
 H      2   1   3     2.079526594399   106.71536795   295.53154483
 H      2   1   3     2.077625714668   106.30034026   173.36619127
 H      3   1   2     2.066304145668   114.11336044   202.34192611
 H      3   1   2     2.115618630165   105.72157426    77.55153214
 H      3   1   2     2.105584378212   111.53080745   323.36282183
 H      4   1   2     2.116153015766   109.72086947   248.93167747
 H      4   1   2     2.107693112150   112.80734756     5.67672109
 H      4   1   2     2.090136538157   109.94533839   132.86852033

---------------------
BASIS SET INFORMATION
---------------------
There are 2 groups of distinct atoms

 Group   1 Type C   : 7s4p1d contracted to 3s2p1d pattern {511/31/1}
 Group   2 Type H   : 4s contracted to 2s pattern {31}

Atom   0C    basis set group =>   1
Atom   1C    basis set group =>   1
Atom   2C    basis set group =>   1
Atom   3C    basis set group =>   1
Atom   4H    basis set group =>   2
Atom   5H    basis set group =>   2
Atom   6H    basis set group =>   2
Atom   7H    basis set group =>   2
Atom   8H    basis set group =>   2
Atom   9H    basis set group =>   2
Atom  10H    basis set group =>   2
Atom  11H    basis set group =>   2
Atom  12H    basis set group =>   2
---------------------------------
AUXILIARY/J BASIS SET INFORMATION
---------------------------------
There are 2 groups of distinct atoms

 Group   1 Type C   : 12s5p4d2f1g contracted to 6s4p3d1f1g pattern {711111/2111/211/2/1}
 Group   2 Type H   : 5s2p1d contracted to 3s1p1d pattern {311/2/1}

Atom   0C    basis set group =>   1
Atom   1C    basis set group =>   1
Atom   2C    basis set group =>   1
Atom   3C    basis set group =>   1
Atom   4H    basis set group =>   2
Atom   5H    basis set group =>   2
Atom   6H    basis set group =>   2
Atom   7H    basis set group =>   2
Atom   8H    basis set group =>   2
Atom   9H    basis set group =>   2
Atom  10H    basis set group =>   2
Atom  11H    basis set group =>   2
Atom  12H    basis set group =>   2
------------------------------------------------------------------------------
                           ORCA GTO INTEGRAL CALCULATION
------------------------------------------------------------------------------

                         BASIS SET STATISTICS AND STARTUP INFO

 # of primitive gaussian shells          ...   84
 # of primitive gaussian functions       ...  132
 # of contracted shells                  ...   42
 # of contracted basis functions         ...   74
 Highest angular momentum                ...    2
 Maximum contraction depth               ...    5
 Integral package used                   ... LIBINT
 Integral threshhold            Thresh   ...  1.000e-12
 Primitive cut-off              TCut     ...  1.000e-14


------------------------------ INTEGRAL EVALUATION ----------------------------


 * One electron integrals 
 Pre-screening matrix                    ... done
 Shell pair data                         ... done (   0.000 sec)

-------------------------------------------------------------------------------
                                 ORCA SCF
-------------------------------------------------------------------------------

------------
SCF SETTINGS
------------
Hamiltonian:
 Density Functional     Method          .... DFT(GTOs)
 Exchange Functional    Exchange        .... B88
   X-Alpha parameter    XAlpha          ....  0.666667
   Becke's b parameter  XBeta           ....  0.004200
 Correlation Functional Correlation     .... LYP
 LDA part of GGA corr.  LDAOpt          .... VWN-5
 Gradients option       PostSCFGGA      .... off
 Hybrid DFT is turned on
   Fraction HF Exchange ScalHFX         ....  0.200000
   Scaling of DF-GGA-X  ScalDFX         ....  0.720000
   Scaling of DF-GGA-C  ScalDFC         ....  0.810000
   Scaling of DF-LDA-C  ScalLDAC        ....  1.000000
   Perturbative correction              ....  0.000000
   Density functional embedding theory  .... OFF
   NL short-range parameter             ....  4.800000


General Settings:
 Integral files         IntName         .... orca2
 Hartree-Fock type      HFTyp           .... UHF
 Total Charge           Charge          ....    0
 Multiplicity           Mult            ....    2
 Number of Electrons    NEL             ....   33
 Basis Dimension        Dim             ....   74
 Nuclear Repulsion      ENuc            ....    127.0093502677 Eh

Convergence Acceleration:
 DIIS                   CNVDIIS         .... on
   Start iteration      DIISMaxIt       ....    12
   Startup error        DIISStart       ....  0.200000
   # of expansion vecs  DIISMaxEq       ....     5
   Bias factor          DIISBfac        ....   1.050
   Max. coefficient     DIISMaxC        ....  10.000
 Newton-Raphson         CNVNR           .... off
 SOSCF                  CNVSOSCF        .... off
 Level Shifting         CNVShift        .... on
   Level shift para.    LevelShift      ....    0.2500
   Turn off err/grad.   ShiftErr        ....    0.0010
 Zerner damping         CNVZerner       .... off
 Static damping         CNVDamp         .... on
   Fraction old density DampFac         ....    0.7000
   Max. Damping (<1)    DampMax         ....    0.9800
   Min. Damping (>=0)   DampMin         ....    0.0000
   Turn off err/grad.   DampErr         ....    0.1000
 Fernandez-Rico         CNVRico         .... off

SCF Procedure:
 Maximum # iterations   MaxIter         ....   500
 SCF integral mode      SCFMode         .... Direct
   Integral package                     .... LIBINT
 Reset frequency        DirectResetFreq ....    20
 Integral Threshold     Thresh          ....  1.000e-12 Eh
 Primitive CutOff       TCut            ....  1.000e-14 Eh

Convergence Tolerance:
 Convergence Check Mode ConvCheckMode   .... Total+1el-Energy
 Convergence forced     ConvForced      .... 0
 Energy Change          TolE            ....  1.000e-09 Eh
 1-El. energy change                    ....  1.000e-06 Eh
 DIIS Error             TolErr          ....  1.000e-08


Diagonalization of the overlap matrix:
Smallest eigenvalue                        ... 1.791e-03
Time for diagonalization                   ...    0.001 sec
Threshold for overlap eigenvalues          ... 1.000e-08
Number of eigenvalues below threshold      ... 0
Time for construction of square roots      ...    0.455 sec
Total time needed                          ...    0.456 sec

-------------------
DFT GRID GENERATION
-------------------

General Integration Accuracy     IntAcc      ...  4.340
Radial Grid Type                 RadialGrid  ... Gauss-Chebyshev
Angular Grid (max. acc.)         AngularGrid ... Lebedev-110
Angular grid pruning method      GridPruning ... 3 (G Style)
Weight generation scheme         WeightScheme... Becke
Basis function cutoff            BFCut       ...    1.0000e-12
Integration weight cutoff        WCut        ...    1.0000e-14
Grids for H and He will be reduced by one unit

# of grid points (after initial pruning)     ...  13770 (   0.0 sec)
# of grid points (after weights+screening)   ...  12897 (   0.0 sec)
nearest neighbour list constructed           ...    0.0 sec
Grid point re-assignment to atoms done       ...    0.0 sec
Grid point division into batches done        ...    0.0 sec
Reduced shell lists constructed in    0.1 sec

Total number of grid points                  ...    12897
Total number of batches                      ...      208
Average number of points per batch           ...       62
Average number of grid points per atom       ...      992
Average number of shells per batch           ...    37.27 (88.73%)
Average number of basis functions per batch  ...    66.40 (89.73%)
Average number of large shells per batch     ...    32.67 (87.66%)
Average number of large basis fcns per batch ...    58.06 (87.44%)
Maximum spatial batch extension              ...  20.67, 21.97, 22.44 au
Average spatial batch extension              ...   4.17,  4.02,  4.03 au

Time for grid setup =    0.469 sec

------------------------------
INITIAL GUESS: MODEL POTENTIAL
------------------------------
Loading Hartree-Fock densities                     ... done
Calculating cut-offs                               ... done
Setting up the integral package                    ... done
Initializing the effective Hamiltonian             ... done
Starting the Coulomb interaction                   ... done (   0.0 sec)
Reading the grid                                   ... done
Mapping shells                                     ... done
Starting the XC term evaluation                    ... done (   0.1 sec)
  promolecular density results
     # of electrons  =     32.988335555
     EX              =    -23.183644226
     EC              =     -1.032047320
     EX+EC           =    -24.215691546
Transforming the Hamiltonian                       ... done (   0.0 sec)
Diagonalizing the Hamiltonian                      ... done (   0.0 sec)
Back transforming the eigenvectors                 ... done (   0.0 sec)
Now organizing SCF variables                       ... done
                      ------------------
                      INITIAL GUESS DONE (   0.7 sec)
                      ------------------
--------------
SCF ITERATIONS
--------------
ITER       Energy         Delta-E        Max-DP      RMS-DP      [F,P]     Damp
               ***  Starting incremental Fock matrix formation  ***
  0   -157.3528585502   0.000000000000 0.04313410  0.00209388  0.1720147 0.7000
  1   -157.4224139655  -0.069555415339 0.02651416  0.00150595  0.0887975 0.7000
                               ***Turning on DIIS***
  2   -157.4504804242  -0.028066458719 0.03672798  0.00252274  0.0326337 0.0000
  3   -157.4888612055  -0.038380781261 0.01805001  0.00104658  0.0487846 0.0000
  4   -157.5012897652  -0.012428559727 0.00614742  0.00032082  0.0093824 0.0000
  5   -157.5019227372  -0.000632971946 0.00172991  0.00011324  0.0022731 0.0000
  6   -157.5019741901  -0.000051452933 0.00131221  0.00007383  0.0006848 0.0000
  7   -157.5019850565  -0.000010866414 0.00044528  0.00001451  0.0002192 0.0000
  8   -157.5019860730  -0.000001016476 0.00014459  0.00000519  0.0000769 0.0000
  9   -157.5019861969  -0.000000123883 0.00006498  0.00000206  0.0000415 0.0000
 10   -157.5019862206  -0.000000023690 0.00002318  0.00000082  0.0000099 0.0000
 11   -157.5019862250  -0.000000004403 0.00001120  0.00000046  0.0000032 0.0000
 12   -157.5019862261  -0.000000001096 0.00000325  0.00000013  0.0000016 0.0000
 13   -157.5019862262  -0.000000000119 0.00000288  0.00000011  0.0000009 0.0000
 14   -157.5019862262  -0.000000000057 0.00000098  0.00000004  0.0000004 0.0000
 15   -157.5019862262  -0.000000000003 0.00000050  0.00000002  0.0000001 0.0000
 16   -157.5019862262  -0.000000000002 0.00000014  0.00000001  0.0000001 0.0000
                 **** Energy Check signals convergence ****

 Fermi smearing  (ALPHA): E(HOMO(Eh)) = -0.316060 MUE = -0.092365 gap=   7.881 eV
 Fermi smearing   (BETA): E(HOMO(Eh)) = -0.309529 MUE = -0.189813 gap=   6.501 eV

N_FOD(alpha) =  0.000000
 N_FOD(beta) =  0.000000
       N_FOD =  0.000000

               *****************************************************
               *                     SUCCESS                       *
               *           SCF CONVERGED AFTER  17 CYCLES          *
               *****************************************************

Setting up the final grid:

General Integration Accuracy     IntAcc      ...  4.670
Radial Grid Type                 RadialGrid  ... Gauss-Chebyshev
Angular Grid (max. acc.)         AngularGrid ... Lebedev-302
Angular grid pruning method      GridPruning ... 3 (G Style)
Weight generation scheme         WeightScheme... Becke
Basis function cutoff            BFCut       ...    1.0000e-12
Integration weight cutoff        WCut        ...    1.0000e-14
Grids for H and He will be reduced by one unit

# of grid points (after initial pruning)     ...  55394 (   0.0 sec)
# of grid points (after weights+screening)   ...  51250 (   0.1 sec)
nearest neighbour list constructed           ...    0.0 sec
Grid point re-assignment to atoms done       ...    0.0 sec
Grid point division into batches done        ...    0.2 sec
Reduced shell lists constructed in    0.4 sec

Total number of grid points                  ...    51250
Total number of batches                      ...      804
Average number of points per batch           ...       63
Average number of grid points per atom       ...     3942
Average number of shells per batch           ...    34.99 (83.32%)
Average number of basis functions per batch  ...    62.19 (84.04%)
Average number of large shells per batch     ...    30.00 (85.73%)
Average number of large basis fcns per batch ...    52.82 (84.94%)
Maximum spatial batch extension              ...  19.99, 18.05, 18.44 au
Average spatial batch extension              ...   2.62,  2.71,  2.64 au

Final grid set up in    1.2 sec
Final integration                            ... done (   3.4 sec)
Change in XC energy                          ...     0.000243953
Integrated number of electrons               ...    33.000052907
Previous integrated no of electrons          ...    32.997081553

----------------
TOTAL SCF ENERGY
----------------

Total Energy       :         -157.50174227 Eh           -4285.84030 eV

Components:
Nuclear Repulsion  :          127.00935027 Eh            3456.10013 eV
Electronic Energy  :         -284.51109254 Eh           -7741.94042 eV
One Electron Energy:         -461.53973165 Eh          -12559.13459 eV
Two Electron Energy:          177.02863910 Eh            4817.19417 eV

Virial components:
Potential Energy   :         -313.39551508 Eh           -8527.92552 eV
Kinetic Energy     :          155.89377281 Eh            4242.08522 eV
Virial Ratio       :            2.01031452


DFT components:
N(Alpha)           :       17.000027754727 electrons
N(Beta)            :       16.000025151906 electrons
N(Total)           :       33.000052906633 electrons
E(X)               :      -18.885871811039 Eh       
E(C)               :       -1.220561454693 Eh       
E(XC)              :      -20.106433265731 Eh       
DFET-embed. en.    :        0.000000000000 Eh       

---------------
SCF CONVERGENCE
---------------

  Last Energy change         ...   -1.2534e-11  Tolerance :   1.0000e-09
  Last MAX-Density change    ...    7.3175e-08  Tolerance :   1.0000e-08
  Last RMS-Density change    ...    3.5599e-09  Tolerance :   1.0000e-09
  Last DIIS Error            ...    2.6418e-08  Tolerance :   1.0000e-08

             **** THE GBW FILE WAS UPDATED (orca2.gbw) ****
             **** DENSITY FILE WAS UPDATED (orca2.scfp) ****
             **** ENERGY FILE WAS UPDATED (orca2.en.tmp) ****
             **** THE GBW FILE WAS UPDATED (orca2.gbw) ****
             **** DENSITY FILE WAS UPDATED (orca2.scfp) ****
----------------
ORBITAL ENERGIES
----------------
                 SPIN UP ORBITALS
  NO   OCC          E(Eh)            E(eV) 
   0   1.0000     -10.188940      -277.2552 
   1   1.0000     -10.182195      -277.0716 
   2   1.0000     -10.165784      -276.6250 
   3   1.0000     -10.165471      -276.6165 
   4   1.0000      -0.802141       -21.8274 
   5   1.0000      -0.674059       -18.3421 
   6   1.0000      -0.663274       -18.0486 
   7   1.0000      -0.541497       -14.7349 
   8   1.0000      -0.459321       -12.4988 
   9   1.0000      -0.442037       -12.0284 
  10   1.0000      -0.433439       -11.7945 
  11   1.0000      -0.384031       -10.4500 
  12   1.0000      -0.365704        -9.9513 
  13   1.0000      -0.339073        -9.2266 
  14   1.0000      -0.330095        -8.9824 
  15   1.0000      -0.316060        -8.6004 
  16   1.0000      -0.237178        -6.4539 
  17   0.0000       0.052448         1.4272 
  18   0.0000       0.087360         2.3772 
  19   0.0000       0.103708         2.8220 
  20   0.0000       0.117948         3.2095 
  21   0.0000       0.119051         3.2395 
  22   0.0000       0.138197         3.7605 
  23   0.0000       0.152016         4.1366 
  24   0.0000       0.166005         4.5172 
  25   0.0000       0.172597         4.6966 
  26   0.0000       0.222620         6.0578 
  27   0.0000       0.251739         6.8502 
  28   0.0000       0.265362         7.2209 
  29   0.0000       0.406911        11.0726 
  30   0.0000       0.436740        11.8843 
  31   0.0000       0.450982        12.2718 
  32   0.0000       0.470684        12.8080 
  33   0.0000       0.500371        13.6158 
  34   0.0000       0.559359        15.2209 
  35   0.0000       0.582688        15.8557 
  36   0.0000       0.596563        16.2333 
  37   0.0000       0.617576        16.8051 
  38   0.0000       0.648856        17.6563 
  39   0.0000       0.669075        18.2065 
  40   0.0000       0.679413        18.4878 
  41   0.0000       0.690631        18.7930 
  42   0.0000       0.692407        18.8414 
  43   0.0000       0.698452        19.0058 
  44   0.0000       0.709627        19.3099 
  45   0.0000       0.719706        19.5842 
  46   0.0000       0.723042        19.6750 
  47   0.0000       0.734071        19.9751 
  48   0.0000       0.745787        20.2939 
  49   0.0000       0.754928        20.5426 
  50   0.0000       0.774502        21.0753 
  51   0.0000       0.862354        23.4658 
  52   0.0000       1.024659        27.8824 
  53   0.0000       1.116130        30.3714 
  54   0.0000       1.381214        37.5848 
  55   0.0000       1.399700        38.0878 
  56   0.0000       1.753969        47.7279 
  57   0.0000       1.777918        48.3796 
  58   0.0000       1.790169        48.7130 
  59   0.0000       1.807928        49.1962 
  60   0.0000       1.899802        51.6962 
  61   0.0000       1.943414        52.8830 
  62   0.0000       2.003600        54.5207 
  63   0.0000       2.031970        55.2927 
  64   0.0000       2.070247        56.3343 
  65   0.0000       2.114374        57.5350 
  66   0.0000       2.133362        58.0517 
  67   0.0000       2.160269        58.7839 
  68   0.0000       2.198679        59.8291 
  69   0.0000       2.394678        65.1625 
  70   0.0000       2.427244        66.0487 
  71   0.0000       2.488700        67.7210 
  72   0.0000       2.683016        73.0086 
  73   0.0000       2.710545        73.7577 

                 SPIN DOWN ORBITALS
  NO   OCC          E(Eh)            E(eV) 
   0   1.0000     -10.182665      -277.0844 
   1   1.0000     -10.173548      -276.8363 
   2   1.0000     -10.165614      -276.6204 
   3   1.0000     -10.164920      -276.6015 
   4   1.0000      -0.795621       -21.6500 
   5   1.0000      -0.672924       -18.3112 
   6   1.0000      -0.643955       -17.5229 
   7   1.0000      -0.532024       -14.4771 
   8   1.0000      -0.453066       -12.3286 
   9   1.0000      -0.435844       -11.8599 
  10   1.0000      -0.430871       -11.7246 
  11   1.0000      -0.382977       -10.4213 
  12   1.0000      -0.362047        -9.8518 
  13   1.0000      -0.332483        -9.0473 
  14   1.0000      -0.327552        -8.9132 
  15   1.0000      -0.309529        -8.4227 
  16   0.0000      -0.070614        -1.9215 
  17   0.0000       0.055245         1.5033 
  18   0.0000       0.088936         2.4201 
  19   0.0000       0.104493         2.8434 
  20   0.0000       0.121455         3.3050 
  21   0.0000       0.123885         3.3711 
  22   0.0000       0.142761         3.8847 
  23   0.0000       0.153089         4.1658 
  24   0.0000       0.169285         4.6065 
  25   0.0000       0.176292         4.7972 
  26   0.0000       0.223959         6.0942 
  27   0.0000       0.260573         7.0906 
  28   0.0000       0.268059         7.2942 
  29   0.0000       0.409621        11.1464 
  30   0.0000       0.439809        11.9678 
  31   0.0000       0.456261        12.4155 
  32   0.0000       0.473533        12.8855 
  33   0.0000       0.547383        14.8950 
  34   0.0000       0.570970        15.5369 
  35   0.0000       0.591885        16.1060 
  36   0.0000       0.606630        16.5072 
  37   0.0000       0.628007        17.0889 
  38   0.0000       0.654454        17.8086 
  39   0.0000       0.672797        18.3077 
  40   0.0000       0.684428        18.6242 
  41   0.0000       0.692409        18.8414 
  42   0.0000       0.698001        18.9936 
  43   0.0000       0.702422        19.1139 
  44   0.0000       0.713042        19.4029 
  45   0.0000       0.723313        19.6823 
  46   0.0000       0.727535        19.7972 
  47   0.0000       0.739599        20.1255 
  48   0.0000       0.748277        20.3616 
  49   0.0000       0.761797        20.7295 
  50   0.0000       0.782189        21.2844 
  51   0.0000       0.868672        23.6378 
  52   0.0000       1.028414        27.9846 
  53   0.0000       1.119431        30.4613 
  54   0.0000       1.389569        37.8121 
  55   0.0000       1.409458        38.3533 
  56   0.0000       1.761709        47.9385 
  57   0.0000       1.786483        48.6127 
  58   0.0000       1.815131        49.3922 
  59   0.0000       1.841015        50.0966 
  60   0.0000       1.919632        52.2359 
  61   0.0000       1.947811        53.0026 
  62   0.0000       2.030517        55.2532 
  63   0.0000       2.043958        55.6189 
  64   0.0000       2.082191        56.6593 
  65   0.0000       2.122046        57.7438 
  66   0.0000       2.151324        58.5405 
  67   0.0000       2.172341        59.1124 
  68   0.0000       2.207484        60.0687 
  69   0.0000       2.406786        65.4920 
  70   0.0000       2.433528        66.2197 
  71   0.0000       2.494214        67.8710 
  72   0.0000       2.685050        73.0639 
  73   0.0000       2.717964        73.9596 

                    ********************************
                    * MULLIKEN POPULATION ANALYSIS *
                    ********************************

------------------------------------------
FOD BASED MULLIKEN REDUCED ORBITAL CHARGES
------------------------------------------
  0 C s       :     0.000000  s :     0.000000
      pz      :     0.000000  p :     0.000000
      px      :     0.000000
      py      :     0.000000
      dz2     :     0.000000  d :     0.000000
      dxz     :     0.000000
      dyz     :     0.000000
      dx2y2   :     0.000000
      dxy     :     0.000000
  1 C s       :     0.000000  s :     0.000000
      pz      :     0.000000  p :     0.000000
      px      :     0.000000
      py      :     0.000000
      dz2     :    -0.000000  d :     0.000000
      dxz     :     0.000000
      dyz     :     0.000000
      dx2y2   :     0.000000
      dxy     :     0.000000
  2 C s       :    -0.000000  s :    -0.000000
      pz      :     0.000000  p :     0.000000
      px      :     0.000000
      py      :     0.000000
      dz2     :     0.000000  d :     0.000000
      dxz     :     0.000000
      dyz     :     0.000000
      dx2y2   :     0.000000
      dxy     :     0.000000
  3 C s       :    -0.000000  s :    -0.000000
      pz      :     0.000000  p :     0.000000
      px      :     0.000000
      py      :     0.000000
      dz2     :     0.000000  d :     0.000000
      dxz     :     0.000000
      dyz     :     0.000000
      dx2y2   :     0.000000
      dxy     :     0.000000
  4 H s       :     0.000000  s :     0.000000
  5 H s       :     0.000000  s :     0.000000
  6 H s       :     0.000000  s :     0.000000
  7 H s       :     0.000000  s :     0.000000
  8 H s       :     0.000000  s :     0.000000
  9 H s       :     0.000000  s :     0.000000
 10 H s       :     0.000000  s :     0.000000
 11 H s       :     0.000000  s :     0.000000
 12 H s       :     0.000000  s :     0.000000


                     *******************************
                     * LOEWDIN POPULATION ANALYSIS *
                     *******************************

-------------------------------------------
LOEWDIN ATOMIC CHARGES AND SPIN POPULATIONS
-------------------------------------------
   0 C :   -0.175619   -0.005123
   1 C :   -0.198583    0.956128
   2 C :   -0.309421    0.018505
   3 C :   -0.313728    0.005487
   4 H :    0.116665    0.041719
   5 H :    0.107585   -0.009412
   6 H :    0.105695   -0.007760
   7 H :    0.107811    0.000706
   8 H :    0.110139   -0.000821
   9 H :    0.111874    0.001586
  10 H :    0.111365   -0.000723
  11 H :    0.113468    0.000403
  12 H :    0.112749   -0.000696

----------------------------------------------------
LOEWDIN REDUCED ORBITAL CHARGES AND SPIN POPULATIONS
----------------------------------------------------
CHARGE
  0 C s       :     2.874135  s :     2.874135
      pz      :     1.058066  p :     3.189102
      px      :     1.064555
      py      :     1.066481
      dz2     :     0.028903  d :     0.112381
      dxz     :     0.012666
      dyz     :     0.019468
      dx2y2   :     0.023143
      dxy     :     0.028200
  1 C s       :     3.055503  s :     3.055503
      pz      :     0.942888  p :     3.080896
      px      :     1.067297
      py      :     1.070711
      dz2     :     0.004988  d :     0.062185
      dxz     :     0.008712
      dyz     :     0.013418
      dx2y2   :     0.016687
      dxy     :     0.018381
  2 C s       :     2.956012  s :     2.956012
      pz      :     1.102398  p :     3.277717
      px      :     1.101647
      py      :     1.073673
      dz2     :     0.017726  d :     0.075691
      dxz     :     0.012529
      dyz     :     0.014119
      dx2y2   :     0.008514
      dxy     :     0.022804
  3 C s       :     2.954524  s :     2.954524
      pz      :     1.116166  p :     3.285521
      px      :     1.070412
      py      :     1.098943
      dz2     :     0.009450  d :     0.073682
      dxz     :     0.017224
      dyz     :     0.013998
      dx2y2   :     0.016513
      dxy     :     0.016498
  4 H s       :     0.883335  s :     0.883335
  5 H s       :     0.892415  s :     0.892415
  6 H s       :     0.894305  s :     0.894305
  7 H s       :     0.892189  s :     0.892189
  8 H s       :     0.889861  s :     0.889861
  9 H s       :     0.888126  s :     0.888126
 10 H s       :     0.888635  s :     0.888635
 11 H s       :     0.886532  s :     0.886532
 12 H s       :     0.887251  s :     0.887251

SPIN
  0 C s       :    -0.002044  s :    -0.002044
      pz      :    -0.000196  p :    -0.014426
      px      :    -0.007139
      py      :    -0.007091
      dz2     :     0.003387  d :     0.011347
      dxz     :     0.001856
      dyz     :     0.005302
      dx2y2   :     0.000181
      dxy     :     0.000621
  1 C s       :     0.111021  s :     0.111021
      pz      :     0.796442  p :     0.849044
      px      :     0.021341
      py      :     0.031261
      dz2     :    -0.000660  d :    -0.003937
      dxz     :    -0.000955
      dyz     :    -0.001218
      dx2y2   :    -0.000206
      dxy     :    -0.000898
  2 C s       :     0.006299  s :     0.006299
      pz      :     0.001228  p :     0.012511
      px      :     0.000612
      py      :     0.010671
      dz2     :    -0.000196  d :    -0.000305
      dxz     :    -0.000088
      dyz     :     0.000011
      dx2y2   :    -0.000058
      dxy     :     0.000026
  3 C s       :     0.002117  s :     0.002117
      pz      :     0.000433  p :     0.003637
      px      :     0.002604
      py      :     0.000600
      dz2     :     0.000032  d :    -0.000267
      dxz     :    -0.000160
      dyz     :     0.000082
      dx2y2   :    -0.000142
      dxy     :    -0.000078
  4 H s       :     0.041719  s :     0.041719
  5 H s       :    -0.009412  s :    -0.009412
  6 H s       :    -0.007760  s :    -0.007760
  7 H s       :     0.000706  s :     0.000706
  8 H s       :    -0.000821  s :    -0.000821
  9 H s       :     0.001586  s :     0.001586
 10 H s       :    -0.000723  s :    -0.000723
 11 H s       :     0.000403  s :     0.000403
 12 H s       :    -0.000696  s :    -0.000696


                      *****************************
                      * MAYER POPULATION ANALYSIS *
                      *****************************

  NA   - Mulliken gross atomic population
  ZA   - Total nuclear charge
  QA   - Mulliken gross atomic charge
  VA   - Mayer's total valence
  BVA  - Mayer's bonded valence
  FA   - Mayer's free valence

  ATOM       NA         ZA         QA         VA         BVA        FA
  0 C      6.1497     6.0000    -0.1497     4.2187     4.2164     0.0023
  1 C      6.1753     6.0000    -0.1753     3.8925     3.0324     0.8602
  2 C      6.2459     6.0000    -0.2459     3.9641     3.9638     0.0002
  3 C      6.2405     6.0000    -0.2405     3.9420     3.9419     0.0000
  4 H      0.9168     1.0000     0.0832     0.9383     0.9360     0.0023
  5 H      0.9109     1.0000     0.0891     0.9513     0.9504     0.0009
  6 H      0.9107     1.0000     0.0893     0.9487     0.9480     0.0008
  7 H      0.9057     1.0000     0.0943     0.9579     0.9579     0.0000
  8 H      0.9152     1.0000     0.0848     0.9583     0.9583     0.0000
  9 H      0.9030     1.0000     0.0970     0.9582     0.9582     0.0000
 10 H      0.9153     1.0000     0.0847     0.9524     0.9524     0.0000
 11 H      0.9032     1.0000     0.0968     0.9656     0.9656     0.0000
 12 H      0.9079     1.0000     0.0921     0.9672     0.9672     0.0000

  Mayer bond orders larger than 0.100000
B(  0-C ,  1-C ) :   1.0987 B(  0-C ,  2-C ) :   1.1018 B(  0-C ,  3-C ) :   1.0873 
B(  0-C ,  4-H ) :   0.9088 B(  1-C ,  5-H ) :   0.9454 B(  1-C ,  6-H ) :   0.9416 
B(  2-C ,  7-H ) :   0.9515 B(  2-C ,  8-H ) :   0.9585 B(  2-C ,  9-H ) :   0.9570 
B(  3-C , 10-H ) :   0.9578 B(  3-C , 11-H ) :   0.9592 B(  3-C , 12-H ) :   0.9606 


-------
TIMINGS
-------

Total SCF time: 0 days 0 hours 3 min 53 sec 

Total time                  ....     233.885 sec
Sum of individual times     ....     179.186 sec  ( 76.6%)

Fock matrix formation       ....     154.640 sec  ( 66.1%)
  XC integration            ....      68.192 sec  ( 44.1% of F)
    Basis function eval.    ....       0.936 sec  (  1.4% of XC)
    Density eval.           ....       0.649 sec  (  1.0% of XC)
    XC-Functional eval.     ....       0.396 sec  (  0.6% of XC)
    XC-Potential eval.      ....       0.997 sec  (  1.5% of XC)
Diagonalization             ....       2.436 sec  (  1.0%)
Density matrix formation    ....      11.648 sec  (  5.0%)
Population analysis         ....       5.423 sec  (  2.3%)
Initial guess               ....       0.255 sec  (  0.1%)
Orbital Transformation      ....       0.000 sec  (  0.0%)
Orbital Orthonormalization  ....       0.000 sec  (  0.0%)
DIIS solution               ....       3.111 sec  (  1.3%)
Grid generation             ....       1.673 sec  (  0.7%)


-------------------------------------------------------------------------------
                          DFT DISPERSION CORRECTION                            
                                                                               
                              DFTD3 V3.1  Rev 1                                
                          USING Becke-Johnson damping                          
-------------------------------------------------------------------------------
The B3LYP functional is recognized
Active option DFTDOPT                   ...         4   

molecular C6(AA) [au] = 1132.044883 


            DFT-D V3
 parameters
 s6 scaling factor         :     1.0000 
 a1 scaling factor         :     0.3981 
 s8 scaling factor         :     1.9889 
 a2 scaling factor         :     4.4211 
 ad hoc parameters k1-k3   :    16.0000     1.3333    -4.0000 

 Edisp/kcal,au: -9.146640172886  -0.014576097374 
 E6   /kcal   :  -4.534995521 
 E8   /kcal   :  -4.611644652 
 % E8         :  50.419001568 

-------------------------   ----------------
Dispersion correction           -0.014576097
-------------------------   ----------------


-------------------------   --------------------
FINAL SINGLE POINT ENERGY      -157.516318370915
-------------------------   --------------------

------------------------------------------------------------------------------
                         ORCA SCF GRADIENT CALCULATION
------------------------------------------------------------------------------

Gradient of the Kohn-Sham DFT energy:
Kohn-Sham wavefunction type      ... UKS
Hartree-Fock exchange scaling    ...    0.200
Number of operators              ...    2
Number of atoms                  ...   13
Basis set dimensions             ...   74
Integral neglect threshold       ... 1.0e-12
Integral primitive cutoff        ... 1.0e-14

Nuclear repulsion gradient       ... done
One Electron Gradient            ... done
Pre-screening matrix             ... done
Starting the two electron gradient:
Two electron gradient done
Exchange-correlation gradient    ... done
Dispersion correction            ... done

------------------
CARTESIAN GRADIENT
------------------

   1   C   :   -0.016096454    0.009365065   -0.018536523
   2   C   :    0.016686879   -0.011763574    0.052825182
   3   C   :   -0.022673019   -0.014360237   -0.002267956
   4   C   :    0.024589243    0.012089340    0.015348456
   5   H   :   -0.001316408    0.000287269   -0.005975096
   6   H   :   -0.011635376    0.008284568   -0.013556303
   7   H   :   -0.010865618    0.013261265   -0.012039759
   8   H   :    0.003234468   -0.008969557    0.004802804
   9   H   :    0.008999776   -0.006402529   -0.008650713
  10   H   :    0.004919106    0.000545991    0.003872350
  11   H   :   -0.001397433   -0.000295206   -0.007858188
  12   H   :    0.002931316   -0.009974990   -0.003803780
  13   H   :    0.002623521    0.007932595   -0.004160474

Difference to translation invariance:
           :    0.0000000000   -0.0000000000   -0.0000000000

Norm of the cartesian gradient     ...    0.0842464988
RMS gradient                       ...    0.0134902363
MAX gradient                       ...    0.0528251821

-------
TIMINGS
-------

Total SCF gradient time            ...        4.385 sec

One electron gradient       ....       0.029 sec  (  0.7%)
Prescreening matrices       ....       0.028 sec  (  0.6%)
Two electron gradient       ....       1.475 sec  ( 33.6%)
XC gradient                 ....       2.667 sec  ( 60.8%)
------------------------------------------------------------------------------
                         ORCA GEOMETRY RELAXATION STEP
------------------------------------------------------------------------------

Reading the OPT-File                    .... done
Getting information on internals        .... done
Copying old internal coords+grads       .... done
Making the new internal coordinates     .... (new redundants).... done
Validating the new internal coordinates .... (new redundants).... done
Calculating the B-matrix                .... done
Calculating the G,G- and P matrices     .... done
Transforming gradient to internals      .... done
Projecting the internal gradient        .... done
Number of atoms                         ....  13
Number of internal coordinates          ....  57
Current Energy                          ....  -157.516318371 Eh
Current gradient norm                   ....     0.084246499 Eh/bohr
Maximum allowed component of the step   ....  0.300
Current trust radius                    ....  0.300
Evaluating the initial hessian          ....  (Almloef) done
Projecting the Hessian                  .... done
Forming the augmented Hessian           .... done
Diagonalizing the augmented Hessian     .... done
Last element of RFO vector              ....  0.938930176
Lowest eigenvalues of augmented Hessian:
 -0.022210482  0.010776011  0.013005420  0.013363525  0.075013475
Length of the computed step             ....  0.366489150
Warning: the length of the step is outside the trust region - taking restricted step instead
The input lambda is                     ....    -0.022210
   iter:   1  x=   -0.038670  g=    2.692266 f(x)=     0.044314
   iter:   2  x=   -0.046697  g=    1.472774 f(x)=     0.011821
   iter:   3  x=   -0.047738  g=    1.183371 f(x)=     0.001232
   iter:   4  x=   -0.047752  g=    1.152773 f(x)=     0.000016
   iter:   5  x=   -0.047752  g=    1.152373 f(x)=     0.000000
   iter:   6  x=   -0.047752  g=    1.152373 f(x)=     0.000000
The output lambda is                    ....    -0.047752 (6 iterations)
The final length of the internal step   ....  0.300000000
Converting the step to cartesian space:
 Initial RMS(Int)=    0.0397359707
Transforming coordinates:
 Iter   0:  RMS(Cart)=    0.0641546845 RMS(Int)=    0.0405982022
 Iter   1:  RMS(Cart)=    0.0035197902 RMS(Int)=    0.0024687347
 Iter   2:  RMS(Cart)=    0.0002176833 RMS(Int)=    0.0001894144
 Iter   3:  RMS(Cart)=    0.0000357461 RMS(Int)=    0.0000270211
 Iter   4:  RMS(Cart)=    0.0000032627 RMS(Int)=    0.0000023279
 Iter   5:  RMS(Cart)=    0.0000003926 RMS(Int)=    0.0000003325
 Iter   6:  RMS(Cart)=    0.0000000455 RMS(Int)=    0.0000000286
done
Storing new coordinates                 .... done

                                .--------------------.
          ----------------------|Geometry convergence|-------------------------
          Item                value                   Tolerance       Converged
          ---------------------------------------------------------------------
          RMS gradient        0.0099394904            0.0001000000      NO
          MAX gradient        0.0336796064            0.0003000000      NO
          RMS step            0.0397359707            0.0020000000      NO
          MAX step            0.1142518289            0.0040000000      NO
          ........................................................
          Max(Bonds)      0.0347      Max(Angles)    6.55
          Max(Dihed)        5.46      Max(Improp)    0.00
          ---------------------------------------------------------------------

The optimization has not yet converged - more geometry cycles are needed


    ---------------------------------------------------------------------------
                         Redundant Internal Coordinates
                            (Angstroem and degrees)

        Definition                    Value    dE/dq     Step     New-Value
    ----------------------------------------------------------------------------
     1. B(C   1,C   0)                1.5258 -0.003893  0.0048    1.5306   
     2. B(C   2,C   0)                1.5115 -0.026153  0.0309    1.5425   
     3. B(C   3,C   0)                1.5055 -0.029903  0.0347    1.5402   
     4. B(H   4,C   0)                1.1197  0.005759 -0.0082    1.1115   
     5. B(H   5,C   1)                1.1004 -0.002358  0.0032    1.1036   
     6. B(H   6,C   1)                1.0994 -0.003642  0.0049    1.1043   
     7. B(H   7,C   2)                1.0934 -0.007112  0.0093    1.1028   
     8. B(H   8,C   2)                1.1195  0.007715 -0.0110    1.1085   
     9. B(H   9,C   2)                1.1142  0.005120 -0.0072    1.1070   
    10. B(H  10,C   3)                1.1198  0.007529 -0.0108    1.1091   
    11. B(H  11,C   3)                1.1153  0.007270 -0.0102    1.1051   
    12. B(H  12,C   3)                1.1061  0.001752 -0.0024    1.1037   
    13. A(C   1,C   0,H   4)          107.85  0.004918   -1.64    106.21   
    14. A(C   2,C   0,H   4)          109.79  0.004150   -1.29    108.51   
    15. A(C   1,C   0,C   2)          105.12 -0.011050    2.75    107.87   
    16. A(C   1,C   0,C   3)          111.94  0.002906    0.06    112.00   
    17. A(C   2,C   0,C   3)          112.81  0.002091    0.25    113.07   
    18. A(C   3,C   0,H   4)          109.16 -0.002869   -0.19    108.97   
    19. A(H   5,C   1,H   6)          114.12  0.012930    1.03    115.15   
    20. A(C   0,C   1,H   6)          106.30 -0.033680    6.55    112.85   
    21. A(C   0,C   1,H   5)          106.72 -0.029714    5.93    112.64   
    22. A(H   7,C   2,H   9)          106.72 -0.001749    0.15    106.86   
    23. A(C   0,C   2,H   9)          111.53  0.003507   -0.39    111.14   
    24. A(H   7,C   2,H   8)          112.99  0.010469   -2.08    110.91   
    25. A(C   0,C   2,H   8)          105.72 -0.015692    2.55    108.27   
    26. A(H   8,C   2,H   9)          105.51  0.002406    0.20    105.72   
    27. A(C   0,C   2,H   7)          114.11  0.001541   -0.44    113.68   
    28. A(H  11,C   3,H  12)          113.05  0.008890   -2.15    110.90   
    29. A(H  10,C   3,H  12)          105.88  0.003134   -0.04    105.84   
    30. A(C   0,C   3,H  12)          109.95 -0.008159    1.13    111.08   
    31. A(H  10,C   3,H  11)          105.05  0.000268    0.31    105.36   
    32. A(C   0,C   3,H  11)          112.81  0.000115   -0.18    112.62   
    33. A(C   0,C   3,H  10)          109.72 -0.003964    0.99    110.71   
    34. D(H   6,C   1,C   0,C   3)     50.56  0.010371   -4.58     45.98   
    35. D(H   6,C   1,C   0,H   4)    -69.54  0.008951   -3.31    -72.85   
    36. D(H   6,C   1,C   0,C   2)    173.37  0.007400   -2.44    170.93   
    37. D(H   5,C   1,C   0,H   4)     52.63 -0.009901    4.59     57.22   
    38. D(H   5,C   1,C   0,C   2)    -64.47 -0.011453    5.46    -59.00   
    39. D(H   5,C   1,C   0,C   3)    172.72 -0.008481    3.33    176.05   
    40. D(H   7,C   2,C   0,C   1)   -157.66  0.003219   -2.51   -160.17   
    41. D(H   9,C   2,C   0,C   1)    -36.64  0.004705   -2.93    -39.57   
    42. D(H   8,C   2,C   0,H   4)    -38.21 -0.001355   -0.40    -38.61   
    43. D(H   8,C   2,C   0,C   1)     77.55  0.000476   -1.46     76.09   
    44. D(H   7,C   2,C   0,H   4)     86.58  0.001388   -1.45     85.13   
    45. D(H   7,C   2,C   0,C   3)    -35.41  0.000645   -0.46    -35.86   
    46. D(H   9,C   2,C   0,C   3)     85.61  0.002131   -0.88     84.73   
    47. D(H   9,C   2,C   0,H   4)   -152.40  0.002874   -1.87   -154.27   
    48. D(H   8,C   2,C   0,C   3)   -160.20 -0.002098    0.59   -159.60   
    49. D(H  12,C   3,C   0,H   4)   -107.81  0.002836   -0.81   -108.61   
    50. D(H  12,C   3,C   0,C   1)    132.87 -0.003222    1.32    134.19   
    51. D(H  11,C   3,C   0,H   4)    125.00 -0.002549    1.30    126.30   
    52. D(H  11,C   3,C   0,C   2)   -112.65  0.002116   -0.31   -112.96   
    53. D(H  11,C   3,C   0,C   1)      5.68 -0.008607    3.43      9.10   
    54. D(H  10,C   3,C   0,H   4)      8.26 -0.000372    0.38      8.63   
    55. D(H  12,C   3,C   0,C   2)     14.54  0.007501   -2.41     12.12   
    56. D(H  10,C   3,C   0,C   2)    130.60  0.004293   -1.23    129.37   
    57. D(H  10,C   3,C   0,C   1)   -111.07 -0.006430    2.50   -108.56   
    ----------------------------------------------------------------------------

Time needed for optimization step       :     4.55 sec

         *************************************************************
         *                GEOMETRY OPTIMIZATION CYCLE   2            *
         *************************************************************
---------------------------------
CARTESIAN COORDINATES (ANGSTROEM)
---------------------------------
  C     -0.006429    0.086402   -0.409798
  C      1.108673   -0.918274   -0.109779
  C      0.267823    1.358814    0.417824
  C     -1.403195   -0.509867   -0.153357
  H      0.085685    0.339788   -1.488112
  H      2.108003   -0.518748   -0.354027
  H      0.902281   -1.916671   -0.534154
  H     -0.619991    1.998699    0.553611
  H      1.089554    1.920391   -0.070258
  H      0.638223    1.104667    1.429634
  H     -1.932845   -0.693485   -1.110321
  H     -1.360002   -1.492461    0.350534
  H     -2.037765    0.194678    0.411443

----------------------------
CARTESIAN COORDINATES (A.U.)
----------------------------
  NO LB      ZA    FRAG     MASS         X           Y           Z
   0 C     6.0000    0    12.011   -0.012148    0.163276   -0.774405
   1 C     6.0000    0    12.011    2.095088   -1.735287   -0.207451
   2 C     6.0000    0    12.011    0.506113    2.567787    0.789573
   3 C     6.0000    0    12.011   -2.651654   -0.963509   -0.289802
   4 H     1.0000    0     1.008    0.161922    0.642105   -2.812124
   5 H     1.0000    0     1.008    3.983549   -0.980292   -0.669014
   6 H     1.0000    0     1.008    1.705064   -3.621983   -1.009405
   7 H     1.0000    0     1.008   -1.171614    3.776994    1.046174
   8 H     1.0000    0     1.008    2.058960    3.629014   -0.132769
   9 H     1.0000    0     1.008    1.206067    2.087518    2.701617
  10 H     1.0000    0     1.008   -3.652548   -1.310497   -2.098203
  11 H     1.0000    0     1.008   -2.570032   -2.820343    0.662413
  12 H     1.0000    0     1.008   -3.850818    0.367887    0.777514

--------------------------------
INTERNAL COORDINATES (ANGSTROEM)
--------------------------------
 C      0   0   0     0.000000000000     0.00000000     0.00000000
 C      1   0   0     1.530632844984     0.00000000     0.00000000
 C      1   2   0     1.542467160377   107.86397212     0.00000000
 C      1   2   3     1.540212424304   111.95824541   235.02791050
 H      1   2   3     1.111508639623   106.22519672   116.19822950
 H      2   1   3     1.103602668036   112.25235784   301.25492827
 H      2   1   3     1.104304547979   112.45423383   170.70061305
 H      3   1   2     1.102772137635   113.67735357   199.81526172
 H      3   1   2     1.108528179750   108.26774033    76.08360970
 H      3   1   2     1.107043957104   111.13148136   320.41282421
 H      4   1   2     1.109065477807   110.70264674   251.43733860
 H      4   1   2     1.105107496429   112.62442572     9.10143764
 H      4   1   2     1.103658052318   111.06891426   134.18113059

---------------------------
INTERNAL COORDINATES (A.U.)
---------------------------
 C      0   0   0     0.000000000000     0.00000000     0.00000000
 C      1   0   0     2.892476888605     0.00000000     0.00000000
 C      1   2   0     2.914840503680   107.86397212     0.00000000
 C      1   2   3     2.910579669997   111.95824541   235.02791050
 H      1   2   3     2.100446924375   106.22519672   116.19822950
 H      2   1   3     2.085506803253   112.25235784   301.25492827
 H      2   1   3     2.086833164124   112.45423383   170.70061305
 H      3   1   2     2.083937328248   113.67735357   199.81526172
 H      3   1   2     2.094814671463   108.26774033    76.08360970
 H      3   1   2     2.092009897140   111.13148136   320.41282421
 H      4   1   2     2.095830017641   110.70264674   251.43733860
 H      4   1   2     2.088350516795   112.62442572     9.10143764
 H      4   1   2     2.085611464378   111.06891426   134.18113059


Diagonalization of the overlap matrix:
Smallest eigenvalue                        ... 2.133e-03
Time for diagonalization                   ...    0.001 sec
Threshold for overlap eigenvalues          ... 1.000e-08
Number of eigenvalues below threshold      ... 0
Time for construction of square roots      ...    2.815 sec
Total time needed                          ...    2.816 sec

-------------------
DFT GRID GENERATION
-------------------

General Integration Accuracy     IntAcc      ...  4.340
Radial Grid Type                 RadialGrid  ... Gauss-Chebyshev
Angular Grid (max. acc.)         AngularGrid ... Lebedev-110
Angular grid pruning method      GridPruning ... 3 (G Style)
Weight generation scheme         WeightScheme... Becke
Basis function cutoff            BFCut       ...    1.0000e-12
Integration weight cutoff        WCut        ...    1.0000e-14
Grids for H and He will be reduced by one unit

# of grid points (after initial pruning)     ...  13770 (   0.0 sec)
# of grid points (after weights+screening)   ...  12897 (   0.0 sec)
nearest neighbour list constructed           ...    0.0 sec
Grid point re-assignment to atoms done       ...    0.0 sec
Grid point division into batches done        ...    0.0 sec
Reduced shell lists constructed in    0.1 sec

Total number of grid points                  ...    12897
Total number of batches                      ...      208
Average number of points per batch           ...       62
Average number of grid points per atom       ...      992
Average number of shells per batch           ...    37.17 (88.49%)
Average number of basis functions per batch  ...    66.17 (89.42%)
Average number of large shells per batch     ...    32.49 (87.41%)
Average number of large basis fcns per batch ...    57.51 (86.91%)
Maximum spatial batch extension              ...  21.41, 21.96, 21.87 au
Average spatial batch extension              ...   4.11,  4.04,  4.05 au

Time for grid setup =    1.656 sec

--------------
SCF ITERATIONS
--------------
ITER       Energy         Delta-E        Max-DP      RMS-DP      [F,P]     Damp
               ***  Starting incremental Fock matrix formation  ***
  0   -157.5135919400   0.000000000000 0.00390673  0.00018383  0.0181736 0.7000
  1   -157.5142299760  -0.000638036004 0.00369987  0.00016921  0.0142333 0.7000
                               ***Turning on DIIS***
  2   -157.5147265169  -0.000496540918 0.01159931  0.00045049  0.0106902 0.0000
  3   -157.5159873244  -0.001260807505 0.00389498  0.00009061  0.0017242 0.0000
  4   -157.5160164284  -0.000029103994 0.00190741  0.00004468  0.0011154 0.0000
  5   -157.5160229524  -0.000006524048 0.00194742  0.00004451  0.0004817 0.0000
  6   -157.5160252922  -0.000002339778 0.00038732  0.00000944  0.0001202 0.0000
  7   -157.5160254739  -0.000000181712 0.00003381  0.00000164  0.0000413 0.0000
  8   -157.5160254841  -0.000000010184 0.00001207  0.00000072  0.0000172 0.0000
  9   -157.5160254866  -0.000000002450 0.00000305  0.00000020  0.0000038 0.0000
 10   -157.5160254867  -0.000000000170 0.00000113  0.00000007  0.0000016 0.0000
 11   -157.5160254868  -0.000000000032 0.00000081  0.00000003  0.0000005 0.0000
                 **** Energy Check signals convergence ****

 Fermi smearing  (ALPHA): E(HOMO(Eh)) = -0.325354 MUE = -0.083906 gap=   7.632 eV
 Fermi smearing   (BETA): E(HOMO(Eh)) = -0.318876 MUE = -0.188656 gap=   7.042 eV

N_FOD(alpha) =  0.000000
 N_FOD(beta) =  0.000000
       N_FOD =  0.000000

               *****************************************************
               *                     SUCCESS                       *
               *           SCF CONVERGED AFTER  12 CYCLES          *
               *****************************************************

Setting up the final grid:

General Integration Accuracy     IntAcc      ...  4.670
Radial Grid Type                 RadialGrid  ... Gauss-Chebyshev
Angular Grid (max. acc.)         AngularGrid ... Lebedev-302
Angular grid pruning method      GridPruning ... 3 (G Style)
Weight generation scheme         WeightScheme... Becke
Basis function cutoff            BFCut       ...    1.0000e-12
Integration weight cutoff        WCut        ...    1.0000e-14
Grids for H and He will be reduced by one unit

# of grid points (after initial pruning)     ...  55394 (   0.0 sec)
# of grid points (after weights+screening)   ...  51332 (   0.1 sec)
nearest neighbour list constructed           ...    0.0 sec
Grid point re-assignment to atoms done       ...    0.0 sec
Grid point division into batches done        ...    0.1 sec
Reduced shell lists constructed in    0.3 sec

Total number of grid points                  ...    51332
Total number of batches                      ...      809
Average number of points per batch           ...       63
Average number of grid points per atom       ...     3949
Average number of shells per batch           ...    34.82 (82.90%)
Average number of basis functions per batch  ...    61.87 (83.61%)
Average number of large shells per batch     ...    29.78 (85.53%)
Average number of large basis fcns per batch ...    52.30 (84.52%)
Maximum spatial batch extension              ...  17.32, 19.50, 18.63 au
Average spatial batch extension              ...   2.62,  2.73,  2.62 au

Final grid set up in    2.2 sec
Final integration                            ... done (   6.7 sec)
Change in XC energy                          ...     0.000413632
Integrated number of electrons               ...    33.000026716
Previous integrated no of electrons          ...    32.999181964
Total Energy       :         -157.51561185 Eh           -4286.21771 eV
  Last Energy change         ...   -6.9349e-12  Tolerance :   1.0000e-09
  Last MAX-Density change    ...    3.7120e-07  Tolerance :   1.0000e-08
             **** THE GBW FILE WAS UPDATED (orca2.gbw) ****
             **** DENSITY FILE WAS UPDATED (orca2.scfp) ****
             **** ENERGY FILE WAS UPDATED (orca2.en.tmp) ****
             **** THE GBW FILE WAS UPDATED (orca2.gbw) ****
             **** DENSITY FILE WAS UPDATED (orca2.scfp) ****
Total SCF time: 0 days 0 hours 5 min 46 sec 


-------------------------------------------------------------------------------
                          DFT DISPERSION CORRECTION                            
                                                                               
                              DFTD3 V3.1  Rev 1                                
                          USING Becke-Johnson damping                          
-------------------------------------------------------------------------------
-------------------------   ----------------
Dispersion correction           -0.014307542
-------------------------   ----------------


-------------------------   --------------------
FINAL SINGLE POINT ENERGY      -157.529919395977
-------------------------   --------------------

------------------------------------------------------------------------------
                         ORCA SCF GRADIENT CALCULATION
------------------------------------------------------------------------------

Gradient of the Kohn-Sham DFT energy:
Kohn-Sham wavefunction type      ... UKS
Hartree-Fock exchange scaling    ...    0.200
Number of operators              ...    2
Number of atoms                  ...   13
Basis set dimensions             ...   74
Integral neglect threshold       ... 1.0e-12
Integral primitive cutoff        ... 1.0e-14

Nuclear repulsion gradient       ... done
One Electron Gradient            ... done
Pre-screening matrix             ... done
Starting the two electron gradient:
Two electron gradient done
Exchange-correlation gradient    ... done
Dispersion correction            ... done

------------------
CARTESIAN GRADIENT
------------------

   1   C   :   -0.010248949    0.008646811   -0.019609866
   2   C   :    0.012560553   -0.010459094    0.033794268
   3   C   :   -0.008601017   -0.000661613    0.001071320
   4   C   :    0.006286762    0.001686536    0.011089212
   5   H   :    0.001164006   -0.001404388   -0.000815562
   6   H   :   -0.003129821    0.004352692   -0.009302853
   7   H   :   -0.004704718    0.003216954   -0.008820747
   8   H   :   -0.000104445   -0.002636358    0.004903676
   9   H   :    0.003623795   -0.004151198   -0.002473549
  10   H   :    0.003109360    0.001697535    0.000176479
  11   H   :   -0.000995790   -0.000173461   -0.001455267
  12   H   :    0.000427430   -0.003571663   -0.004978883
  13   H   :    0.000612835    0.003457248   -0.003578227

Difference to translation invariance:
           :    0.0000000000    0.0000000000   -0.0000000000

Norm of the cartesian gradient     ...    0.0508930857
RMS gradient                       ...    0.0081494159
MAX gradient                       ...    0.0337942680

-------
TIMINGS
-------

Total SCF gradient time            ...        4.406 sec

One electron gradient       ....       0.026 sec  (  0.6%)
Prescreening matrices       ....       0.024 sec  (  0.5%)
Two electron gradient       ....       1.326 sec  ( 30.1%)
XC gradient                 ....       2.398 sec  ( 54.4%)
------------------------------------------------------------------------------
                         ORCA GEOMETRY RELAXATION STEP
------------------------------------------------------------------------------

Reading the OPT-File                    .... done
Getting information on internals        .... done
Copying old internal coords+grads       .... done
Making the new internal coordinates     .... (new redundants).... done
Validating the new internal coordinates .... (new redundants).... done
Calculating the B-matrix                .... done
Calculating the G,G- and P matrices     .... done
Transforming gradient to internals      .... done
Projecting the internal gradient        .... done
Number of atoms                         ....  13
Number of internal coordinates          ....  57
Current Energy                          ....  -157.529919396 Eh
Current gradient norm                   ....     0.050893086 Eh/bohr
Maximum allowed component of the step   ....  0.300
Current trust radius                    ....  0.300
Updating the Hessian (BFGS)             .... done
Forming the augmented Hessian           .... done
Diagonalizing the augmented Hessian     .... done
Last element of RFO vector              ....  0.949454799
Lowest eigenvalues of augmented Hessian:
 -0.008109134  0.010773777  0.013049688  0.013471636  0.074045059
Length of the computed step             ....  0.330614772
Warning: the length of the step is outside the trust region - taking restricted step instead
The input lambda is                     ....    -0.008109
   iter:   1  x=   -0.011940  g=    5.040173 f(x)=     0.019306
   iter:   2  x=   -0.012866  g=    3.501789 f(x)=     0.003243
   iter:   3  x=   -0.012903  g=    3.245344 f(x)=     0.000121
   iter:   4  x=   -0.012903  g=    3.235665 f(x)=     0.000000
   iter:   5  x=   -0.012903  g=    3.235651 f(x)=     0.000000
   iter:   6  x=   -0.012903  g=    3.235651 f(x)=    -0.000000
The output lambda is                    ....    -0.012903 (6 iterations)
The final length of the internal step   ....  0.300000000
Converting the step to cartesian space:
 Initial RMS(Int)=    0.0397359707
Transforming coordinates:
 Iter   0:  RMS(Cart)=    0.0424428473 RMS(Int)=    0.8223128142
 Iter   1:  RMS(Cart)=    0.0028087211 RMS(Int)=    0.0020594967
 Iter   2:  RMS(Cart)=    0.0001916158 RMS(Int)=    0.0001418170
 Iter   3:  RMS(Cart)=    0.0000179040 RMS(Int)=    0.0000162865
 Iter   4:  RMS(Cart)=    0.0000019569 RMS(Int)=    0.0000011984
 Iter   5:  RMS(Cart)=    0.0000001947 RMS(Int)=    0.0000001777
 Iter   6:  RMS(Cart)=    0.0000000209 RMS(Int)=    0.0000000130
done
Storing new coordinates                 .... done

                                .--------------------.
          ----------------------|Geometry convergence|-------------------------
          Item                value                   Tolerance       Converged
          ---------------------------------------------------------------------
          Energy change      -0.0136010251            0.0000050000      NO
          RMS gradient        0.0041198156            0.0001000000      NO
          MAX gradient        0.0130139102            0.0003000000      NO
          RMS step            0.0397359707            0.0020000000      NO
          MAX step            0.0988702056            0.0040000000      NO
          ........................................................
          Max(Bonds)      0.0183      Max(Angles)    5.07
          Max(Dihed)        5.66      Max(Improp)    0.00
          ---------------------------------------------------------------------

The optimization has not yet converged - more geometry cycles are needed


    ---------------------------------------------------------------------------
                         Redundant Internal Coordinates
                            (Angstroem and degrees)

        Definition                    Value    dE/dq     Step     New-Value
    ----------------------------------------------------------------------------
     1. B(C   1,C   0)                1.5306  0.008403 -0.0183    1.5124   
     2. B(C   2,C   0)                1.5425 -0.003124  0.0073    1.5498   
     3. B(C   3,C   0)                1.5402 -0.006098  0.0133    1.5536   
     4. B(H   4,C   0)                1.1115  0.000568 -0.0015    1.1100   
     5. B(H   5,C   1)                1.1036  0.000802 -0.0019    1.1017   
     6. B(H   6,C   1)                1.1043  0.001363 -0.0032    1.1011   
     7. B(H   7,C   2)                1.1028 -0.000844  0.0021    1.1049   
     8. B(H   8,C   2)                1.1085  0.001675 -0.0044    1.1042   
     9. B(H   9,C   2)                1.1070  0.000812 -0.0021    1.1049   
    10. B(H  10,C   3)                1.1091  0.001754 -0.0046    1.1045   
    11. B(H  11,C   3)                1.1051  0.000925 -0.0024    1.1027   
    12. B(H  12,C   3)                1.1037  0.000027 -0.0001    1.1036   
    13. A(C   1,C   0,H   4)          106.23  0.001588   -0.80    105.42   
    14. A(C   2,C   0,H   4)          108.53  0.002012   -1.15    107.37   
    15. A(C   1,C   0,C   2)          107.86 -0.005002    2.20    110.07   
    16. A(C   1,C   0,C   3)          111.96  0.001436   -0.01    111.95   
    17. A(C   2,C   0,C   3)          113.03  0.001051   -0.01    113.03   
    18. A(C   3,C   0,H   4)          108.96 -0.000996   -0.28    108.68   
    19. A(H   5,C   1,H   6)          114.30  0.007200    1.31    115.61   
    20. A(C   0,C   1,H   6)          112.45 -0.013014    5.07    117.52   
    21. A(C   0,C   1,H   5)          112.25 -0.011787    4.72    116.97   
    22. A(H   7,C   2,H   9)          106.86 -0.002402    0.58    107.44   
    23. A(C   0,C   2,H   9)          111.13  0.002495   -0.45    110.68   
    24. A(H   7,C   2,H   8)          110.92  0.004703   -2.03    108.88   
    25. A(C   0,C   2,H   8)          108.27 -0.007584    2.20    110.47   
    26. A(H   8,C   2,H   9)          105.71 -0.000168    0.95    106.65   
    27. A(C   0,C   2,H   7)          113.68  0.002977   -1.15    112.52   
    28. A(H  11,C   3,H  12)          110.90  0.004230   -2.28    108.62   
    29. A(H  10,C   3,H  12)          105.82  0.000040    0.63    106.45   
    30. A(C   0,C   3,H  12)          111.07 -0.003079    0.61    111.68   
    31. A(H  10,C   3,H  11)          105.36 -0.001692    1.08    106.44   
    32. A(C   0,C   3,H  11)          112.62  0.001140   -0.58    112.05   
    33. A(C   0,C   3,H  10)          110.70 -0.000622    0.70    111.40   
    34. D(H   6,C   1,C   0,C   3)     45.73  0.006266   -3.99     41.74   
    35. D(H   6,C   1,C   0,H   4)    -73.10  0.005692   -3.14    -76.24   
    36. D(H   6,C   1,C   0,C   2)    170.70  0.004983   -2.49    168.21   
    37. D(H   5,C   1,C   0,H   4)     57.45 -0.006360    5.02     62.48   
    38. D(H   5,C   1,C   0,C   2)    -58.75 -0.007068    5.66    -53.08   
    39. D(H   5,C   1,C   0,C   3)    176.28 -0.005786    4.17    180.45   
    40. D(H   7,C   2,C   0,C   1)   -160.18  0.002105   -3.62   -163.80   
    41. D(H   9,C   2,C   0,C   1)    -39.59  0.002930   -4.03    -43.62   
    42. D(H   8,C   2,C   0,H   4)    -38.60 -0.000649   -1.54    -40.14   
    43. D(H   8,C   2,C   0,C   1)     76.08 -0.000351   -1.89     74.20   
    44. D(H   7,C   2,C   0,H   4)     85.13  0.001808   -3.27     81.86   
    45. D(H   7,C   2,C   0,C   3)    -35.86  0.000985   -2.09    -37.94   
    46. D(H   9,C   2,C   0,C   3)     84.74  0.001809   -2.50     82.24   
    47. D(H   9,C   2,C   0,H   4)   -154.27  0.002632   -3.68   -157.95   
[...]

             **** THE GBW FILE WAS UPDATED (orca2.gbw) ****
             **** DENSITY FILE WAS UPDATED (orca2.scfp) ****
             **** ENERGY FILE WAS UPDATED (orca2.en.tmp) ****
             **** THE GBW FILE WAS UPDATED (orca2.gbw) ****
             **** DENSITY FILE WAS UPDATED (orca2.scfp) ****
----------------
ORBITAL ENERGIES
----------------
                 SPIN UP ORBITALS
  NO   OCC          E(Eh)            E(eV) 
   0   1.0000     -10.188269      -277.2369 
   1   1.0000     -10.180171      -277.0165 
   2   1.0000     -10.168422      -276.6968 
   3   1.0000     -10.168213      -276.6911 
   4   1.0000      -0.793766       -21.5995 
   5   1.0000      -0.671782       -18.2801 
   6   1.0000      -0.661612       -18.0034 
   7   1.0000      -0.548886       -14.9359 
   8   1.0000      -0.456023       -12.4090 
   9   1.0000      -0.439486       -11.9590 
  10   1.0000      -0.430555       -11.7160 
  11   1.0000      -0.382526       -10.4091 
  12   1.0000      -0.367668       -10.0048 
  13   1.0000      -0.347132        -9.4459 
  14   1.0000      -0.338308        -9.2058 
  15   1.0000      -0.332773        -9.0552 
  16   1.0000      -0.202157        -5.5010 
  17   0.0000       0.058617         1.5950 
  18   0.0000       0.105431         2.8689 
  19   0.0000       0.107285         2.9194 
  20   0.0000       0.108175         2.9436 
  21   0.0000       0.123549         3.3619 
  22   0.0000       0.129103         3.5131 
  23   0.0000       0.146256         3.9798 
  24   0.0000       0.166543         4.5319 
  25   0.0000       0.180174         4.9028 
  26   0.0000       0.209717         5.7067 
  27   0.0000       0.255512         6.9528 
  28   0.0000       0.259709         7.0670 
  29   0.0000       0.403974        10.9927 
  30   0.0000       0.423248        11.5172 
  31   0.0000       0.425680        11.5833 
  32   0.0000       0.444063        12.0836 
  33   0.0000       0.481166        13.0932 
  34   0.0000       0.498045        13.5525 
  35   0.0000       0.558266        15.1912 
  36   0.0000       0.608653        16.5623 
  37   0.0000       0.646714        17.5980 
  38   0.0000       0.654336        17.8054 
  39   0.0000       0.657603        17.8943 
  40   0.0000       0.663612        18.0578 
  41   0.0000       0.671842        18.2817 
  42   0.0000       0.692328        18.8392 
  43   0.0000       0.703564        19.1449 
  44   0.0000       0.707662        19.2565 
  45   0.0000       0.719514        19.5790 
  46   0.0000       0.731341        19.9008 
  47   0.0000       0.750654        20.4263 
  48   0.0000       0.757443        20.6111 
  49   0.0000       0.763012        20.7626 
  50   0.0000       0.876098        23.8398 
  51   0.0000       0.934682        25.4340 
  52   0.0000       1.056503        28.7489 
  53   0.0000       1.065397        28.9909 
  54   0.0000       1.396474        38.0000 
  55   0.0000       1.488213        40.4963 
  56   0.0000       1.679637        45.7052 
  57   0.0000       1.745343        47.4932 
  58   0.0000       1.766284        48.0630 
  59   0.0000       1.858161        50.5631 
  60   0.0000       1.914286        52.0904 
  61   0.0000       1.942064        52.8462 
  62   0.0000       1.952187        53.1217 
  63   0.0000       1.990600        54.1670 
  64   0.0000       2.060511        56.0694 
  65   0.0000       2.091904        56.9236 
  66   0.0000       2.145554        58.3835 
  67   0.0000       2.155107        58.6435 
  68   0.0000       2.159477        58.7623 
  69   0.0000       2.427742        66.0622 
  70   0.0000       2.443537        66.4920 
  71   0.0000       2.466001        67.1033 
  72   0.0000       2.676218        72.8236 
  73   0.0000       2.690522        73.2128 

                 SPIN DOWN ORBITALS
  NO   OCC          E(Eh)            E(eV) 
   0   1.0000     -10.189234      -277.2631 
   1   1.0000     -10.167998      -276.6853 
   2   1.0000     -10.167816      -276.6803 
   3   1.0000     -10.165685      -276.6223 
   4   1.0000      -0.786765       -21.4090 
   5   1.0000      -0.671167       -18.2634 
   6   1.0000      -0.638202       -17.3664 
   7   1.0000      -0.538745       -14.6600 
   8   1.0000      -0.449955       -12.2439 
   9   1.0000      -0.433802       -11.8044 
  10   1.0000      -0.428090       -11.6489 
  11   1.0000      -0.381993       -10.3945 
  12   1.0000      -0.365106        -9.9350 
  13   1.0000      -0.340583        -9.2677 
  14   1.0000      -0.331416        -9.0183 
  15   1.0000      -0.330457        -8.9922 
  16   0.0000      -0.045951        -1.2504 
  17   0.0000       0.061234         1.6663 
  18   0.0000       0.107267         2.9189 
  19   0.0000       0.107769         2.9326 
  20   0.0000       0.115486         3.1425 
  21   0.0000       0.127161         3.4602 
  22   0.0000       0.131245         3.5714 
  23   0.0000       0.147933         4.0255 
  24   0.0000       0.166569         4.5326 
  25   0.0000       0.181472         4.9381 
  26   0.0000       0.212713         5.7882 
  27   0.0000       0.256075         6.9682 
  28   0.0000       0.267788         7.2869 
  29   0.0000       0.405809        11.0426 
  30   0.0000       0.426585        11.6080 
  31   0.0000       0.431565        11.7435 
  32   0.0000       0.444632        12.0990 
  33   0.0000       0.500617        13.6225 
  34   0.0000       0.538636        14.6570 
  35   0.0000       0.585081        15.9209 
  36   0.0000       0.619361        16.8537 
  37   0.0000       0.648712        17.6523 
  38   0.0000       0.657444        17.8900 
  39   0.0000       0.661230        17.9930 
  40   0.0000       0.668468        18.1899 
  41   0.0000       0.681544        18.5458 
  42   0.0000       0.693287        18.8653 
  43   0.0000       0.707147        19.2424 
  44   0.0000       0.710541        19.3348 
  45   0.0000       0.719491        19.5783 
  46   0.0000       0.734116        19.9763 
  47   0.0000       0.753444        20.5023 
  48   0.0000       0.764031        20.7903 
  49   0.0000       0.769199        20.9310 
  50   0.0000       0.883917        24.0526 
  51   0.0000       0.938118        25.5275 
  52   0.0000       1.062138        28.9022 
  53   0.0000       1.068148        29.0658 
  54   0.0000       1.410637        38.3854 
  55   0.0000       1.488995        40.5176 
  56   0.0000       1.728285        47.0290 
  57   0.0000       1.748390        47.5761 
  58   0.0000       1.778842        48.4048 
  59   0.0000       1.873645        50.9845 
  60   0.0000       1.926908        52.4338 
  61   0.0000       1.953430        53.1555 
  62   0.0000       1.979710        53.8706 
  63   0.0000       2.012284        54.7570 
  64   0.0000       2.085485        56.7489 
  65   0.0000       2.100712        57.1633 
  66   0.0000       2.146418        58.4070 
  67   0.0000       2.161576        58.8195 
  68   0.0000       2.163576        58.8739 
  69   0.0000       2.437517        66.3282 
  70   0.0000       2.454658        66.7946 
  71   0.0000       2.468870        67.1814 
  72   0.0000       2.682918        73.0059 
  73   0.0000       2.691757        73.2464 

                    ********************************
                    * MULLIKEN POPULATION ANALYSIS *
                    ********************************

------------------------------------------
FOD BASED MULLIKEN REDUCED ORBITAL CHARGES
------------------------------------------
  0 C s       :    -0.000000  s :    -0.000000
      pz      :     0.000000  p :     0.000000
      px      :     0.000000
      py      :     0.000000
      dz2     :     0.000000  d :     0.000000
      dxz     :     0.000000
      dyz     :     0.000000
      dx2y2   :     0.000000
      dxy     :     0.000000
  1 C s       :    -0.000000  s :    -0.000000
      pz      :     0.000000  p :     0.000000
      px      :     0.000000
      py      :     0.000000
      dz2     :     0.000000  d :     0.000000
      dxz     :     0.000000
      dyz     :     0.000000
      dx2y2   :     0.000000
      dxy     :     0.000000
  2 C s       :    -0.000000  s :    -0.000000
      pz      :     0.000000  p :     0.000000
      px      :     0.000000
      py      :     0.000000
      dz2     :     0.000000  d :     0.000000
      dxz     :     0.000000
      dyz     :     0.000000
      dx2y2   :     0.000000
      dxy     :     0.000000
  3 C s       :    -0.000000  s :    -0.000000
      pz      :     0.000000  p :     0.000000
      px      :     0.000000
      py      :     0.000000
      dz2     :     0.000000  d :     0.000000
      dxz     :     0.000000
      dyz     :     0.000000
      dx2y2   :     0.000000
      dxy     :     0.000000
  4 H s       :     0.000000  s :     0.000000
  5 H s       :     0.000000  s :     0.000000
  6 H s       :     0.000000  s :     0.000000
  7 H s       :     0.000000  s :     0.000000
  8 H s       :     0.000000  s :     0.000000
  9 H s       :     0.000000  s :     0.000000
 10 H s       :     0.000000  s :     0.000000
 11 H s       :     0.000000  s :     0.000000
 12 H s       :     0.000000  s :     0.000000


                     *******************************
                     * LOEWDIN POPULATION ANALYSIS *
                     *******************************

-------------------------------------------
LOEWDIN ATOMIC CHARGES AND SPIN POPULATIONS
-------------------------------------------
   0 C :   -0.158789   -0.013592
   1 C :   -0.224032    0.978785
   2 C :   -0.308405    0.013832
   3 C :   -0.309109    0.014585
   4 H :    0.115807    0.054168
   5 H :    0.111870   -0.025524
   6 H :    0.111940   -0.025449
   7 H :    0.109807    0.000594
   8 H :    0.110100   -0.000424
   9 H :    0.110312    0.001333
  10 H :    0.110330   -0.000423
  11 H :    0.110544    0.001328
  12 H :    0.109626    0.000785

----------------------------------------------------
LOEWDIN REDUCED ORBITAL CHARGES AND SPIN POPULATIONS
----------------------------------------------------
CHARGE
  0 C s       :     2.876015  s :     2.876015
      pz      :     1.058757  p :     3.170913
      px      :     1.055682
      py      :     1.056474
      dz2     :     0.023955  d :     0.111861
      dxz     :     0.012581
      dyz     :     0.025788
      dx2y2   :     0.019349
      dxy     :     0.030188
  1 C s       :     3.017973  s :     3.017973
      pz      :     1.007870  p :     3.148960
      px      :     1.069132
      py      :     1.071958
      dz2     :     0.005259  d :     0.057099
      dxz     :     0.003244
      dyz     :     0.006778
      dx2y2   :     0.024950
      dxy     :     0.016868
  2 C s       :     2.958072  s :     2.958072
      pz      :     1.097002  p :     3.277711
      px      :     1.105934
      py      :     1.074774
      dz2     :     0.022940  d :     0.072622
      dxz     :     0.004333
      dyz     :     0.014074
      dx2y2   :     0.007934
      dxy     :     0.023340
  3 C s       :     2.957995  s :     2.957995
      pz      :     1.113816  p :     3.278506
      px      :     1.063501
      py      :     1.101190
      dz2     :     0.017021  d :     0.072608
      dxz     :     0.005697
      dyz     :     0.018409
      dx2y2   :     0.009947
      dxy     :     0.021533
  4 H s       :     0.884193  s :     0.884193
  5 H s       :     0.888130  s :     0.888130
  6 H s       :     0.888060  s :     0.888060
  7 H s       :     0.890193  s :     0.890193
  8 H s       :     0.889900  s :     0.889900
  9 H s       :     0.889688  s :     0.889688
 10 H s       :     0.889670  s :     0.889670
 11 H s       :     0.889456  s :     0.889456
 12 H s       :     0.890374  s :     0.890374

SPIN
  0 C s       :    -0.004777  s :    -0.004777
      pz      :    -0.006802  p :    -0.026264
      px      :    -0.010243
      py      :    -0.009220
      dz2     :     0.000997  d :     0.017449
      dxz     :     0.005323
      dyz     :     0.008560
      dx2y2   :     0.001086
      dxy     :     0.001483
  1 C s       :     0.040217  s :     0.040217
      pz      :     0.839986  p :     0.942413
      px      :     0.029631
      py      :     0.072795
      dz2     :    -0.002133  d :    -0.003844
      dxz     :     0.000053
      dyz     :    -0.000376
      dx2y2   :    -0.000630
      dxy     :    -0.000759
  2 C s       :     0.004733  s :     0.004733
      pz      :     0.000969  p :     0.009237
      px      :     0.001610
      py      :     0.006658
      dz2     :    -0.000175  d :    -0.000138
      dxz     :     0.000009
      dyz     :    -0.000001
      dx2y2   :    -0.000077
      dxy     :     0.000106
  3 C s       :     0.005047  s :     0.005047
      pz      :     0.000735  p :     0.009664
      px      :     0.006828
      py      :     0.002101
      dz2     :    -0.000097  d :    -0.000126
      dxz     :    -0.000092
      dyz     :     0.000188
      dx2y2   :    -0.000147
      dxy     :     0.000022
  4 H s       :     0.054168  s :     0.054168
  5 H s       :    -0.025524  s :    -0.025524
  6 H s       :    -0.025449  s :    -0.025449
  7 H s       :     0.000594  s :     0.000594
  8 H s       :    -0.000424  s :    -0.000424
  9 H s       :     0.001333  s :     0.001333
 10 H s       :    -0.000423  s :    -0.000423
 11 H s       :     0.001328  s :     0.001328
 12 H s       :     0.000785  s :     0.000785


                      *****************************
                      * MAYER POPULATION ANALYSIS *
                      *****************************

  NA   - Mulliken gross atomic population
  ZA   - Total nuclear charge
  QA   - Mulliken gross atomic charge
  VA   - Mayer's total valence
  BVA  - Mayer's bonded valence
  FA   - Mayer's free valence

  ATOM       NA         ZA         QA         VA         BVA        FA
  0 C      6.0878     6.0000    -0.0878     4.1872     4.1842     0.0030
  1 C      6.2401     6.0000    -0.2401     3.8834     2.9988     0.8846
  2 C      6.2449     6.0000    -0.2449     3.9538     3.9537     0.0001
  3 C      6.2478     6.0000    -0.2478     3.9557     3.9556     0.0002
  4 H      0.9234     1.0000     0.0766     0.9350     0.9313     0.0037
  5 H      0.8981     1.0000     0.1019     0.9535     0.9506     0.0028
  6 H      0.8988     1.0000     0.1012     0.9528     0.9500     0.0028
  7 H      0.9098     1.0000     0.0902     0.9575     0.9575     0.0000
  8 H      0.9091     1.0000     0.0909     0.9554     0.9554     0.0000
  9 H      0.9107     1.0000     0.0893     0.9621     0.9621     0.0000
 10 H      0.9069     1.0000     0.0931     0.9550     0.9550     0.0000
 11 H      0.9113     1.0000     0.0887     0.9626     0.9626     0.0000
 12 H      0.9113     1.0000     0.0887     0.9582     0.9582     0.0000

  Mayer bond orders larger than 0.100000
B(  0-C ,  1-C ) :   1.0804 B(  0-C ,  2-C ) :   1.0892 B(  0-C ,  3-C ) :   1.0904 
B(  0-C ,  4-H ) :   0.8972 B(  1-C ,  5-H ) :   0.9416 B(  1-C ,  6-H ) :   0.9403 
B(  2-C ,  7-H ) :   0.9577 B(  2-C ,  8-H ) :   0.9576 B(  2-C ,  9-H ) :   0.9590 
B(  3-C , 10-H ) :   0.9580 B(  3-C , 11-H ) :   0.9583 B(  3-C , 12-H ) :   0.9573 


-------
TIMINGS
-------

Total SCF time: 0 days 0 hours 4 min 25 sec 

Total time                  ....     265.382 sec
Sum of individual times     ....     212.706 sec  ( 80.2%)

Fock matrix formation       ....     186.797 sec  ( 70.4%)
  XC integration            ....     114.784 sec  ( 61.4% of F)
    Basis function eval.    ....       0.561 sec  (  0.5% of XC)
    Density eval.           ....       0.383 sec  (  0.3% of XC)
    XC-Functional eval.     ....       0.240 sec  (  0.2% of XC)
    XC-Potential eval.      ....       0.557 sec  (  0.5% of XC)
Diagonalization             ....       1.746 sec  (  0.7%)
Density matrix formation    ....       9.256 sec  (  3.5%)
Population analysis         ....       6.219 sec  (  2.3%)
Initial guess               ....       0.003 sec  (  0.0%)
Orbital Transformation      ....       0.000 sec  (  0.0%)
Orbital Orthonormalization  ....       0.001 sec  (  0.0%)
DIIS solution               ....       6.443 sec  (  2.4%)
Grid generation             ....       2.241 sec  (  0.8%)


-------------------------------------------------------------------------------
                          DFT DISPERSION CORRECTION                            
                                                                               
                              DFTD3 V3.1  Rev 1                                
                          USING Becke-Johnson damping                          
-------------------------------------------------------------------------------
The B3LYP functional is recognized
Active option DFTDOPT                   ...         4   

molecular C6(AA) [au] = 1132.639427 


            DFT-D V3
 parameters
 s6 scaling factor         :     1.0000 
 a1 scaling factor         :     0.3981 
 s8 scaling factor         :     1.9889 
 a2 scaling factor         :     4.4211 
 ad hoc parameters k1-k3   :    16.0000     1.3333    -4.0000 

 Edisp/kcal,au: -9.019879223361  -0.014374090964 
 E6   /kcal   :  -4.465103640 
 E8   /kcal   :  -4.554775583 
 % E8         :  50.497079514 

-------------------------   ----------------
Dispersion correction           -0.014374091
-------------------------   ----------------


-------------------------   --------------------
FINAL SINGLE POINT ENERGY      -157.545313120969
-------------------------   --------------------

                                *** OPTIMIZATION RUN DONE ***

                            ***************************************
                            *     ORCA property calculations      *
                            ***************************************

                                    ---------------------
                                    Active property flags
                                    ---------------------
   (+) Dipole Moment


------------------------------------------------------------------------------
                       ORCA ELECTRIC PROPERTIES CALCULATION
------------------------------------------------------------------------------

Dipole Moment Calculation                       ... on
Quadrupole Moment Calculation                   ... off
Polarizability Calculation                      ... off
GBWName                                         ... orca2.gbw
Electron density file                           ... orca2.scfp
The origin for moment calculation is the CENTER OF MASS  = (-0.047025,  0.053075 -0.239931)

-------------
DIPOLE MOMENT
-------------
                                X             Y             Z
Electronic contribution:      0.81086      -0.53197      -0.67664
Nuclear contribution   :     -0.85666       0.60302       0.59788
                        -----------------------------------------
Total Dipole Moment    :     -0.04581       0.07105      -0.07876
                        -----------------------------------------
Magnitude (a.u.)       :      0.11554
Magnitude (Debye)      :      0.29367



--------------------
Rotational spectrum 
--------------------
 
Rotational constants in cm-1:     0.279018     0.261926     0.152932 
Rotational constants in MHz :  8364.743415  7852.354289  4584.786181 

 Dipole components along the rotational axes: 
x,y,z [a.u.] :     0.000717     0.050649    -0.103841 
x,y,z [Debye]:     0.001823     0.128739    -0.263942 

 

Timings for individual modules:

Sum of individual times         ...     7968.446 sec (= 132.807 min)
GTO integral calculation        ...      165.666 sec (=   2.761 min)   2.1 %
SCF iterations                  ...     7613.901 sec (= 126.898 min)  95.6 %
SCF Gradient evaluation         ...       99.740 sec (=   1.662 min)   1.3 %
Geometry relaxation             ...       89.139 sec (=   1.486 min)   1.1 %
                             ****ORCA TERMINATED NORMALLY****
TOTAL RUN TIME: 0 days 2 hours 17 minutes 40 seconds 746 msec
