
                                 *****************
                                 * O   R   C   A *
                                 *****************

           --- An Ab Initio, DFT and Semiempirical electronic structure package ---

                  #######################################################
                  #                        -***-                        #
                  #          Department of theory and spectroscopy      #
                  #               Directorship: Frank Neese             #
                  #        Max Planck Institute fuer Kohlenforschung    #
                  #                Kaiser Wilhelm Platz 1               #
                  #                 D-45470 Muelheim/Ruhr               #
                  #                      Germany                        #
                  #                                                     #
                  #                  All rights reserved                #
                  #                        -***-                        #
                  #######################################################


                         Program Version 4.2.1 -  RELEASE  -


 With contributions from (in alphabetic order):
   Daniel Aravena         : Magnetic Suceptibility
   Michael Atanasov       : Ab Initio Ligand Field Theory (pilot matlab implementation)
   Alexander A. Auer      : GIAO ZORA, VPT2
   Ute Becker             : Parallelization
   Giovanni Bistoni       : ED, misc. LED, open-shell LED, HFLD
   Martin Brehm           : Molecular dynamics
   Dmytro Bykov           : SCF Hessian
   Vijay G. Chilkuri      : MRCI spin determinant printing, contributions to CSF-ICE
   Dipayan Datta          : RHF DLPNO-CCSD density
   Achintya Kumar Dutta   : EOM-CC, STEOM-CC
   Dmitry Ganyushin       : Spin-Orbit,Spin-Spin,Magnetic field MRCI
   Miquel Garcia          : C-PCM Hessian, Gaussian charge scheme
   Yang Guo               : DLPNO-NEVPT2, CIM, IAO-localization
   Andreas Hansen         : Spin unrestricted coupled pair/coupled cluster methods
   Benjamin Helmich-Paris : CASSCF linear response (MC-RPA)
   Lee Huntington         : MR-EOM, pCC
   Robert Izsak           : Overlap fitted RIJCOSX, COSX-SCS-MP3, EOM
   Christian Kollmar      : KDIIS, OOCD, Brueckner-CCSD(T), CCSD density
   Simone Kossmann        : Meta GGA functionals, TD-DFT gradient, OOMP2, MP2 Hessian
   Martin Krupicka        : AUTO-CI
   Lucas Lang             : DCDCAS
   Dagmar Lenk            : GEPOL surface, SMD
   Dimitrios Liakos       : Extrapolation schemes; Compound Job, initial MDCI parallelization
   Dimitrios Manganas     : Further ROCIS development; embedding schemes
   Dimitrios Pantazis     : SARC Basis sets
   Taras Petrenko         : DFT Hessian,TD-DFT gradient, ASA, ECA, R-Raman, ABS, FL, XAS/XES, NRVS
   Peter Pinski           : DLPNO-MP2, DLPNO-MP2 Gradient
   Christoph Reimann      : Effective Core Potentials
   Marius Retegan         : Local ZFS, SOC
   Christoph Riplinger    : Optimizer, TS searches, QM/MM, DLPNO-CCSD(T), (RO)-DLPNO pert. Triples
   Tobias Risthaus        : Range-separated hybrids, TD-DFT gradient, RPA, STAB
   Michael Roemelt        : Original ROCIS implementation
   Masaaki Saitow         : Open-shell DLPNO-CCSD energy and density
   Barbara Sandhoefer     : DKH picture change effects
   Avijit Sen             : IP-ROCIS
   Kantharuban Sivalingam : CASSCF convergence, NEVPT2, FIC-MRCI
   Bernardo de Souza      : ESD, SOC TD-DFT
   Georgi Stoychev        : AutoAux, RI-MP2 NMR
   Willem Van den Heuvel  : Paramagnetic NMR
   Boris Wezisla          : Elementary symmetry handling
   Frank Wennmohs         : Technical directorship


 We gratefully acknowledge several colleagues who have allowed us to
 interface, adapt or use parts of their codes:
   Stefan Grimme, W. Hujo, H. Kruse,             : VdW corrections, initial TS optimization,
                  C. Bannwarth                     DFT functionals, gCP, sTDA/sTD-DF
   Ed Valeev, F. Pavosevic, A. Kumar             : LibInt (2-el integral package), F12 methods
   Garnet Chan, S. Sharma, J. Yang, R. Olivares  : DMRG
   Ulf Ekstrom                                   : XCFun DFT Library
   Mihaly Kallay                                 : mrcc  (arbitrary order and MRCC methods)
   Andreas Klamt, Michael Diedenhofen            : otool_cosmo (COSMO solvation model)
   Jiri Pittner, Ondrej Demel                    : Mk-CCSD
   Frank Weinhold                                : gennbo (NPA and NBO analysis)
   Christopher J. Cramer and Donald G. Truhlar   : smd solvation model
   Lars Goerigk                                  : TD-DFT with DH, B97 family of functionals
   V. Asgeirsson, H. Jonsson                     : NEB implementation
   FAccTs GmbH                                   : IRC, NEB, NEB-TS, Multilevel, MM, QM/MM, CI optimization
   S Lehtola, MJT Oliveira, MAL Marques          : LibXC Library


 Your calculation uses the libint2 library for the computation of 2-el integrals
 For citations please refer to: http://libint.valeyev.net

 Your ORCA version has been built with support for libXC version: 4.2.3
 For citations please refer to: https://tddft.org/programs/libxc/

 This ORCA versions uses:
   CBLAS   interface :  Fast vector & matrix operations
   LAPACKE interface :  Fast linear algebra routines
   SCALAPACK package :  Parallel linear algebra routines


Your calculation utilizes the atom-pairwise dispersion correction
with the Becke-Johnson damping scheme (D3BJ)
Cite in your paper:
S.Grimme, S.Ehrlich, L.Goerigk, J Comput Chem, (2011), 32, 1456–1465 
S.Grimme, J.Antony, S.Ehrlich and H.Krieg, J.Chem.Phys., 132, (2010), 154104 
   

----- Orbital basis set information -----
Your calculation utilizes the basis: def2-SV(P)
   F. Weigend and R. Ahlrichs, Phys. Chem. Chem. Phys. 7, 3297 (2005).

----- AuxJ basis set information -----
Your calculation utilizes the auxiliary basis: def2/J
   F. Weigend, Phys. Chem. Chem. Phys. 8, 1057 (2006).

================================================================================
                                        WARNINGS
                       Please study these warnings very carefully!
================================================================================


WARNING: Geometry Optimization
  ===> : Switching off AutoStart
         For restart on a previous wavefunction, please use MOREAD

INFO   : the flag for use of LIBINT has been found!

================================================================================
                                       INPUT FILE
================================================================================
NAME = orca1.inp
|  1> ! UKS B3LYP def2-SV(P) def2/J D3BJ Opt
|  2> %scf Convergence VeryTight
|  3> SmearTemp 2000
|  4> maxiter 500
|  5> end
|  6> *xyz 0 2
|  7> C -0.058653 0.008836 0.382777
|  8> C 1.433147 0.008372 0.17417
|  9> C -0.698141 -1.228168 -0.179633
| 10> C -0.72701 1.227936 -0.231001
| 11> H -0.228406 0.110387 1.48317
| 12> H 1.737048 -0.891871 -0.395083
| 13> H 2.007738 -0.011055 1.1152
| 14> H -1.438439 -1.031604 -0.969732
| 15> H -1.230175 -1.724483 0.642428
| 16> H 0.105594 -1.861341 -0.634424
| 17> H -1.765417 1.211095 0.135288
| 18> H -0.15263 2.100541 0.173099
| 19> H -0.705799 1.158443 -1.324284
| 20> *
| 21> 
| 22>                          ****END OF INPUT****
================================================================================

                       *****************************
                       * Geometry Optimization Run *
                       *****************************

Geometry optimization settings:
Update method            Update   .... BFGS
Choice of coordinates    CoordSys .... Z-matrix Internals
Initial Hessian          InHess   .... Almoef's Model

Convergence Tolerances:
Energy Change            TolE     ....  5.0000e-06 Eh
Max. Gradient            TolMAXG  ....  3.0000e-04 Eh/bohr
RMS Gradient             TolRMSG  ....  1.0000e-04 Eh/bohr
Max. Displacement        TolMAXD  ....  4.0000e-03 bohr
RMS Displacement         TolRMSD  ....  2.0000e-03 bohr
Strict Convergence                ....  False
------------------------------------------------------------------------------
                        ORCA OPTIMIZATION COORDINATE SETUP
------------------------------------------------------------------------------

The optimization will be done in new redundant internal coordinates
Making redundant internal coordinates   ...  (new redundants) done
Evaluating the initial hessian          ...  (Almloef) done
Evaluating the coordinates              ...  done
Calculating the B-matrix                .... done
Calculating the G-matrix                .... done
Diagonalizing the G-matrix              .... done
The first mode is                       ....   24
The number of degrees of freedom        ....   33

    -----------------------------------------------------------------
                    Redundant Internal Coordinates


    -----------------------------------------------------------------
         Definition                    Initial Value    Approx d2E/dq
    -----------------------------------------------------------------
      1. B(C   1,C   0)                  1.5063         0.407536   
      2. B(C   2,C   0)                  1.5018         0.414338   
      3. B(C   3,C   0)                  1.5197         0.387915   
      4. B(H   4,C   0)                  1.1180         0.324864   
      5. B(H   5,C   1)                  1.1076         0.337518   
      6. B(H   6,C   1)                  1.1028         0.343615   
      7. B(H   7,C   2)                  1.1004         0.346570   
      8. B(H   8,C   2)                  1.0978         0.349923   
      9. B(H   9,C   2)                  1.1197         0.322876   
     10. B(H  10,C   3)                  1.1012         0.345527   
     11. B(H  11,C   3)                  1.1201         0.322391   
     12. B(H  12,C   3)                  1.0957         0.352645   
     13. A(C   1,C   0,H   4)          106.6605         0.323470   
     14. A(C   2,C   0,H   4)          112.2559         0.324350   
     15. A(C   1,C   0,C   2)          111.6905         0.375444   
     16. A(C   1,C   0,C   3)          112.3250         0.371204   
     17. A(C   2,C   0,C   3)          108.7974         0.372263   
     18. A(C   3,C   0,H   4)          104.9433         0.320866   
     19. A(H   5,C   1,H   6)          106.3370         0.285804   
     20. A(C   0,C   1,H   6)          113.4443         0.326467   
     21. A(C   0,C   1,H   5)          110.0690         0.325507   
     22. A(H   7,C   2,H   9)          106.9945         0.284216   
     23. A(C   0,C   2,H   9)          108.1936         0.324023   
     24. A(H   7,C   2,H   8)          107.0002         0.287803   
     25. A(C   0,C   2,H   8)          107.3567         0.328342   
     26. A(H   8,C   2,H   9)          113.3516         0.284642   
     27. A(C   0,C   2,H   7)          114.0925         0.327821   
     28. A(H  11,C   3,H  12)          113.5442         0.284919   
     29. A(H  10,C   3,H  12)          110.4363         0.288016   
     30. A(C   0,C   3,H  12)          110.0957         0.325212   
     31. A(H  10,C   3,H  11)          112.0519         0.284017   
     32. A(C   0,C   3,H  11)          104.6967         0.320465   
     33. A(C   0,C   3,H  10)          105.5505         0.324125   
     34. D(H   6,C   1,C   0,C   3)    120.9754         0.012307   
     35. D(H   6,C   1,C   0,H   4)      6.5277         0.012307   
     36. D(H   6,C   1,C   0,C   2)   -116.4627         0.012307   
     37. D(H   5,C   1,C   0,H   4)    125.5302         0.012307   
     38. D(H   5,C   1,C   0,C   2)      2.5397         0.012307   
     39. D(H   5,C   1,C   0,C   3)   -120.0222         0.012307   
     40. D(H   7,C   2,C   0,C   1)   -119.3687         0.013592   
     41. D(H   9,C   2,C   0,C   1)     -0.4227         0.013592   
     42. D(H   8,C   2,C   0,H   4)      2.5052         0.013592   
     43. D(H   8,C   2,C   0,C   1)    122.2514         0.013592   
     44. D(H   7,C   2,C   0,H   4)    120.8851         0.013592   
     45. D(H   7,C   2,C   0,C   3)      5.1883         0.013592   
     46. D(H   9,C   2,C   0,C   3)    124.1343         0.013592   
     47. D(H   9,C   2,C   0,H   4)   -120.1689         0.013592   
     48. D(H   8,C   2,C   0,C   3)   -113.1916         0.013592   
     49. D(H  12,C   3,C   0,H   4)   -173.8620         0.011969   
     50. D(H  12,C   3,C   0,C   1)     70.6466         0.011969   
     51. D(H  11,C   3,C   0,H   4)     63.7466         0.011969   
     52. D(H  11,C   3,C   0,C   2)   -175.9267         0.011969   
     53. D(H  11,C   3,C   0,C   1)    -51.7447         0.011969   
     54. D(H  10,C   3,C   0,H   4)    -54.6700         0.011969   
     55. D(H  12,C   3,C   0,C   2)    -53.5354         0.011969   
     56. D(H  10,C   3,C   0,C   2)     65.6566         0.011969   
     57. D(H  10,C   3,C   0,C   1)   -170.1614         0.011969   
    -----------------------------------------------------------------

Number of atoms                         .... 13
Number of degrees of freedom            .... 57

         *************************************************************
         *                GEOMETRY OPTIMIZATION CYCLE   1            *
         *************************************************************
---------------------------------
CARTESIAN COORDINATES (ANGSTROEM)
---------------------------------
  C     -0.058653    0.008836    0.382777
  C      1.433147    0.008372    0.174170
  C     -0.698141   -1.228168   -0.179633
  C     -0.727010    1.227936   -0.231001
  H     -0.228406    0.110387    1.483170
  H      1.737048   -0.891871   -0.395083
  H      2.007738   -0.011055    1.115200
  H     -1.438439   -1.031604   -0.969732
  H     -1.230175   -1.724483    0.642428
  H      0.105594   -1.861341   -0.634424
  H     -1.765417    1.211095    0.135288
  H     -0.152630    2.100541    0.173099
  H     -0.705799    1.158443   -1.324284

----------------------------
CARTESIAN COORDINATES (A.U.)
----------------------------
  NO LB      ZA    FRAG     MASS         X           Y           Z
   0 C     6.0000    0    12.011   -0.110838    0.016698    0.723344
   1 C     6.0000    0    12.011    2.708255    0.015821    0.329134
   2 C     6.0000    0    12.011   -1.319295   -2.320901   -0.339457
   3 C     6.0000    0    12.011   -1.373850    2.320463   -0.436529
   4 H     1.0000    0     1.008   -0.431625    0.208601    2.802785
   5 H     1.0000    0     1.008    3.282545   -1.685392   -0.746599
   6 H     1.0000    0     1.008    3.794075   -0.020891    2.107423
   7 H     1.0000    0     1.008   -2.718256   -1.949449   -1.832528
   8 H     1.0000    0     1.008   -2.324694   -3.258801    1.214013
   9 H     1.0000    0     1.008    0.199544   -3.517425   -1.198888
  10 H     1.0000    0     1.008   -3.336155    2.288638    0.255657
  11 H     1.0000    0     1.008   -0.288429    3.969447    0.327110
  12 H     1.0000    0     1.008   -1.333767    2.189140   -2.502534

--------------------------------
INTERNAL COORDINATES (ANGSTROEM)
--------------------------------
 C      0   0   0     0.000000000000     0.00000000     0.00000000
 C      1   0   0     1.506314819599     0.00000000     0.00000000
 C      1   2   0     1.501808511848   111.69050797     0.00000000
 C      1   2   3     1.519746466597   112.32502239   237.43810332
 H      1   2   3     1.118031055498   106.66052537   122.99044458
 H      2   1   3     1.107629114306   110.06900935     2.53970787
 H      2   1   3     1.102755497157   113.44425386   243.53725622
 H      3   1   2     1.100424901891   114.09250562   240.63129681
 H      3   1   2     1.097803736604   107.35673267   122.25137045
 H      3   1   2     1.119702126387   108.19361821   359.57728083
 H      4   1   2     1.101244908479   105.55052393   189.83862021
 H      4   1   2     1.120111012545   104.69672533   308.25527478
 H      4   1   2     1.095694711888   110.09571307    70.64659644

---------------------------
INTERNAL COORDINATES (A.U.)
---------------------------
 C      0   0   0     0.000000000000     0.00000000     0.00000000
 C      1   0   0     2.846522480510     0.00000000     0.00000000
 C      1   2   0     2.838006792985   111.69050797     0.00000000
 C      1   2   3     2.871904614862   112.32502239   237.43810332
 H      1   2   3     2.112772504111   106.66052537   122.99044458
 H      2   1   3     2.093115683997   110.06900935     2.53970787
 H      2   1   3     2.083905882303   113.44425386   243.53725622
 H      3   1   2     2.079501695520   114.09250562   240.63129681
 H      3   1   2     2.074548410977   107.35673267   122.25137045
 H      3   1   2     2.115930370440   108.19361821   359.57728083
 H      4   1   2     2.081051283401   105.55052393   189.83862021
 H      4   1   2     2.116703053300   104.69672533   308.25527478
 H      4   1   2     2.070562931854   110.09571307    70.64659644

---------------------
BASIS SET INFORMATION
---------------------
There are 2 groups of distinct atoms

 Group   1 Type C   : 7s4p1d contracted to 3s2p1d pattern {511/31/1}
 Group   2 Type H   : 4s contracted to 2s pattern {31}

Atom   0C    basis set group =>   1
Atom   1C    basis set group =>   1
Atom   2C    basis set group =>   1
Atom   3C    basis set group =>   1
Atom   4H    basis set group =>   2
Atom   5H    basis set group =>   2
Atom   6H    basis set group =>   2
Atom   7H    basis set group =>   2
Atom   8H    basis set group =>   2
Atom   9H    basis set group =>   2
Atom  10H    basis set group =>   2
Atom  11H    basis set group =>   2
Atom  12H    basis set group =>   2
---------------------------------
AUXILIARY/J BASIS SET INFORMATION
---------------------------------
There are 2 groups of distinct atoms

 Group   1 Type C   : 12s5p4d2f1g contracted to 6s4p3d1f1g pattern {711111/2111/211/2/1}
 Group   2 Type H   : 5s2p1d contracted to 3s1p1d pattern {311/2/1}

Atom   0C    basis set group =>   1
Atom   1C    basis set group =>   1
Atom   2C    basis set group =>   1
Atom   3C    basis set group =>   1
Atom   4H    basis set group =>   2
Atom   5H    basis set group =>   2
Atom   6H    basis set group =>   2
Atom   7H    basis set group =>   2
Atom   8H    basis set group =>   2
Atom   9H    basis set group =>   2
Atom  10H    basis set group =>   2
Atom  11H    basis set group =>   2
Atom  12H    basis set group =>   2
------------------------------------------------------------------------------
                           ORCA GTO INTEGRAL CALCULATION
------------------------------------------------------------------------------

                         BASIS SET STATISTICS AND STARTUP INFO

 # of primitive gaussian shells          ...   84
 # of primitive gaussian functions       ...  132
 # of contracted shells                  ...   42
 # of contracted basis functions         ...   74
 Highest angular momentum                ...    2
 Maximum contraction depth               ...    5
 Integral package used                   ... LIBINT
 Integral threshhold            Thresh   ...  1.000e-12
 Primitive cut-off              TCut     ...  1.000e-14


------------------------------ INTEGRAL EVALUATION ----------------------------


 * One electron integrals 
 Pre-screening matrix                    ... done
 Shell pair data                         ... done (   0.000 sec)

-------------------------------------------------------------------------------
                                 ORCA SCF
-------------------------------------------------------------------------------

------------
SCF SETTINGS
------------
Hamiltonian:
 Density Functional     Method          .... DFT(GTOs)
 Exchange Functional    Exchange        .... B88
   X-Alpha parameter    XAlpha          ....  0.666667
   Becke's b parameter  XBeta           ....  0.004200
 Correlation Functional Correlation     .... LYP
 LDA part of GGA corr.  LDAOpt          .... VWN-5
 Gradients option       PostSCFGGA      .... off
 Hybrid DFT is turned on
   Fraction HF Exchange ScalHFX         ....  0.200000
   Scaling of DF-GGA-X  ScalDFX         ....  0.720000
   Scaling of DF-GGA-C  ScalDFC         ....  0.810000
   Scaling of DF-LDA-C  ScalLDAC        ....  1.000000
   Perturbative correction              ....  0.000000
   Density functional embedding theory  .... OFF
   NL short-range parameter             ....  4.800000


General Settings:
 Integral files         IntName         .... orca1
 Hartree-Fock type      HFTyp           .... UHF
 Total Charge           Charge          ....    0
 Multiplicity           Mult            ....    2
 Number of Electrons    NEL             ....   33
 Basis Dimension        Dim             ....   74
 Nuclear Repulsion      ENuc            ....    127.3824318003 Eh

Convergence Acceleration:
 DIIS                   CNVDIIS         .... on
   Start iteration      DIISMaxIt       ....    12
   Startup error        DIISStart       ....  0.200000
   # of expansion vecs  DIISMaxEq       ....     5
   Bias factor          DIISBfac        ....   1.050
   Max. coefficient     DIISMaxC        ....  10.000
 Newton-Raphson         CNVNR           .... off
 SOSCF                  CNVSOSCF        .... off
 Level Shifting         CNVShift        .... on
   Level shift para.    LevelShift      ....    0.2500
   Turn off err/grad.   ShiftErr        ....    0.0010
 Zerner damping         CNVZerner       .... off
 Static damping         CNVDamp         .... on
   Fraction old density DampFac         ....    0.7000
   Max. Damping (<1)    DampMax         ....    0.9800
   Min. Damping (>=0)   DampMin         ....    0.0000
   Turn off err/grad.   DampErr         ....    0.1000
 Fernandez-Rico         CNVRico         .... off

SCF Procedure:
 Maximum # iterations   MaxIter         ....   500
 SCF integral mode      SCFMode         .... Direct
   Integral package                     .... LIBINT
 Reset frequency        DirectResetFreq ....    20
 Integral Threshold     Thresh          ....  1.000e-12 Eh
 Primitive CutOff       TCut            ....  1.000e-14 Eh

Convergence Tolerance:
 Convergence Check Mode ConvCheckMode   .... Total+1el-Energy
 Convergence forced     ConvForced      .... 0
 Energy Change          TolE            ....  1.000e-09 Eh
 1-El. energy change                    ....  1.000e-06 Eh
 DIIS Error             TolErr          ....  1.000e-08


Diagonalization of the overlap matrix:
Smallest eigenvalue                        ... 1.841e-03
Time for diagonalization                   ...    0.001 sec
Threshold for overlap eigenvalues          ... 1.000e-08
Number of eigenvalues below threshold      ... 0
Time for construction of square roots      ...    0.589 sec
Total time needed                          ...    0.590 sec

-------------------
DFT GRID GENERATION
-------------------

General Integration Accuracy     IntAcc      ...  4.340
Radial Grid Type                 RadialGrid  ... Gauss-Chebyshev
Angular Grid (max. acc.)         AngularGrid ... Lebedev-110
Angular grid pruning method      GridPruning ... 3 (G Style)
Weight generation scheme         WeightScheme... Becke
Basis function cutoff            BFCut       ...    1.0000e-12
Integration weight cutoff        WCut        ...    1.0000e-14
Grids for H and He will be reduced by one unit

# of grid points (after initial pruning)     ...  13770 (   0.0 sec)
# of grid points (after weights+screening)   ...  12882 (   0.0 sec)
nearest neighbour list constructed           ...    0.0 sec
Grid point re-assignment to atoms done       ...    0.0 sec
Grid point division into batches done        ...    0.0 sec
Reduced shell lists constructed in    0.1 sec

Total number of grid points                  ...    12882
Total number of batches                      ...      209
Average number of points per batch           ...       61
Average number of grid points per atom       ...      991
Average number of shells per batch           ...    37.40 (89.06%)
Average number of basis functions per batch  ...    66.77 (90.23%)
Average number of large shells per batch     ...    32.76 (87.59%)
Average number of large basis fcns per batch ...    58.08 (86.98%)
Maximum spatial batch extension              ...  25.66, 19.91, 20.65 au
Average spatial batch extension              ...   4.06,  4.10,  3.91 au

Time for grid setup =    0.368 sec

------------------------------
INITIAL GUESS: MODEL POTENTIAL
------------------------------
Loading Hartree-Fock densities                     ... done
Calculating cut-offs                               ... done
Setting up the integral package                    ... done
Initializing the effective Hamiltonian             ... done
Starting the Coulomb interaction                   ... done (   0.0 sec)
Reading the grid                                   ... done
Mapping shells                                     ... done
Starting the XC term evaluation                    ... done (   0.1 sec)
  promolecular density results
     # of electrons  =     33.001905693
     EX              =    -23.194835368
     EC              =     -1.033050953
     EX+EC           =    -24.227886322
Transforming the Hamiltonian                       ... done (   0.0 sec)
Diagonalizing the Hamiltonian                      ... done (   0.0 sec)
Back transforming the eigenvectors                 ... done (   0.0 sec)
Now organizing SCF variables                       ... done
                      ------------------
                      INITIAL GUESS DONE (   0.6 sec)
                      ------------------
--------------
SCF ITERATIONS
--------------
ITER       Energy         Delta-E        Max-DP      RMS-DP      [F,P]     Damp
               ***  Starting incremental Fock matrix formation  ***
  0   -157.3522826194   0.000000000000 0.04297366  0.00210640  0.1670550 0.7000
  1   -157.4213667195  -0.069084100151 0.02640515  0.00151974  0.0861087 0.7000
                               ***Turning on DIIS***
  2   -157.4493141325  -0.027947412980 0.03713000  0.00257955  0.0314440 0.0000
  3   -157.4876104965  -0.038296364022 0.01823700  0.00105101  0.0476793 0.0000
  4   -157.4999199645  -0.012309467953 0.00577295  0.00032593  0.0090002 0.0000
  5   -157.5005624219  -0.000642457423 0.00181135  0.00011624  0.0022203 0.0000
  6   -157.5006189253  -0.000056503367 0.00186251  0.00008285  0.0008972 0.0000
  7   -157.5006326881  -0.000013762842 0.00041979  0.00001611  0.0001876 0.0000
  8   -157.5006337798  -0.000001091748 0.00014748  0.00000550  0.0001091 0.0000
  9   -157.5006339196  -0.000000139774 0.00007541  0.00000246  0.0000582 0.0000
 10   -157.5006339521  -0.000000032489 0.00002296  0.00000086  0.0000133 0.0000
 11   -157.5006339570  -0.000000004892 0.00001225  0.00000048  0.0000037 0.0000
 12   -157.5006339582  -0.000000001220 0.00000309  0.00000012  0.0000017 0.0000
                 **** Energy Check signals convergence ****

 Fermi smearing  (ALPHA): E(HOMO(Eh)) = -0.323985 MUE = -0.087173 gap=   7.621 eV
 Fermi smearing   (BETA): E(HOMO(Eh)) = -0.318855 MUE = -0.190607 gap=   6.876 eV

N_FOD(alpha) =  0.000000
 N_FOD(beta) =  0.000000
       N_FOD =  0.000000

               *****************************************************
               *                     SUCCESS                       *
               *           SCF CONVERGED AFTER  13 CYCLES          *
               *****************************************************

Setting up the final grid:

General Integration Accuracy     IntAcc      ...  4.670
Radial Grid Type                 RadialGrid  ... Gauss-Chebyshev
Angular Grid (max. acc.)         AngularGrid ... Lebedev-302
Angular grid pruning method      GridPruning ... 3 (G Style)
Weight generation scheme         WeightScheme... Becke
Basis function cutoff            BFCut       ...    1.0000e-12
Integration weight cutoff        WCut        ...    1.0000e-14
Grids for H and He will be reduced by one unit

# of grid points (after initial pruning)     ...  55394 (   0.0 sec)
# of grid points (after weights+screening)   ...  51156 (   0.1 sec)
nearest neighbour list constructed           ...    0.0 sec
Grid point re-assignment to atoms done       ...    0.0 sec
Grid point division into batches done        ...    0.2 sec
Reduced shell lists constructed in    0.4 sec

Total number of grid points                  ...    51156
Total number of batches                      ...      805
Average number of points per batch           ...       63
Average number of grid points per atom       ...     3935
Average number of shells per batch           ...    35.11 (83.60%)
Average number of basis functions per batch  ...    62.44 (84.38%)
Average number of large shells per batch     ...    30.16 (85.89%)
Average number of large basis fcns per batch ...    53.18 (85.18%)
Maximum spatial batch extension              ...  17.45, 18.49, 19.51 au
Average spatial batch extension              ...   2.63,  2.68,  2.64 au

Final grid set up in    0.8 sec
Final integration                            ... done (   5.7 sec)
Change in XC energy                          ...     0.000301752
Integrated number of electrons               ...    33.000029800
Previous integrated no of electrons          ...    33.004461866

----------------
TOTAL SCF ENERGY
----------------

Total Energy       :         -157.50033221 Eh           -4285.80193 eV

Components:
Nuclear Repulsion  :          127.38243180 Eh            3466.25219 eV
Electronic Energy  :         -284.88276401 Eh           -7752.05412 eV
One Electron Energy:         -462.24599973 Eh          -12578.35312 eV
Two Electron Energy:          177.36323572 Eh            4826.29901 eV

Virial components:
Potential Energy   :         -313.45077066 Eh           -8529.42910 eV
Kinetic Energy     :          155.95043845 Eh            4243.62717 eV
Virial Ratio       :            2.00993837


DFT components:
N(Alpha)           :       17.000014872253 electrons
N(Beta)            :       16.000014927480 electrons
N(Total)           :       33.000029799733 electrons
E(X)               :      -18.896772024149 Eh       
E(C)               :       -1.221988706291 Eh       
E(XC)              :      -20.118760730441 Eh       
DFET-embed. en.    :        0.000000000000 Eh       

---------------
SCF CONVERGENCE
---------------

  Last Energy change         ...   -1.1869e-10  Tolerance :   1.0000e-09
  Last MAX-Density change    ...    3.2556e-06  Tolerance :   1.0000e-08
  Last RMS-Density change    ...    1.2928e-07  Tolerance :   1.0000e-09
  Last DIIS Error            ...    1.1755e-06  Tolerance :   1.0000e-08

             **** THE GBW FILE WAS UPDATED (orca1.gbw) ****
             **** DENSITY FILE WAS UPDATED (orca1.scfp) ****
             **** ENERGY FILE WAS UPDATED (orca1.en.tmp) ****
             **** THE GBW FILE WAS UPDATED (orca1.gbw) ****
             **** DENSITY FILE WAS UPDATED (orca1.scfp) ****
----------------
ORBITAL ENERGIES
----------------
                 SPIN UP ORBITALS
  NO   OCC          E(Eh)            E(eV) 
   0   1.0000     -10.185260      -277.1550 
   1   1.0000     -10.181472      -277.0519 
   2   1.0000     -10.167596      -276.6743 
   3   1.0000     -10.166871      -276.6546 
   4   1.0000      -0.805231       -21.9114 
   5   1.0000      -0.674594       -18.3566 
   6   1.0000      -0.666451       -18.1351 
   7   1.0000      -0.544166       -14.8075 
   8   1.0000      -0.468561       -12.7502 
   9   1.0000      -0.433204       -11.7881 
  10   1.0000      -0.420661       -11.4468 
  11   1.0000      -0.395484       -10.7617 
  12   1.0000      -0.377479       -10.2717 
  13   1.0000      -0.336857        -9.1663 
  14   1.0000      -0.327442        -8.9101 
  15   1.0000      -0.323985        -8.8161 
  16   1.0000      -0.227211        -6.1827 
  17   0.0000       0.052865         1.4385 
  18   0.0000       0.083239         2.2650 
  19   0.0000       0.101001         2.7484 
  20   0.0000       0.117369         3.1938 
  21   0.0000       0.126347         3.4381 
  22   0.0000       0.138694         3.7741 
  23   0.0000       0.144797         3.9401 
  24   0.0000       0.170875         4.6497 
  25   0.0000       0.175802         4.7838 
  26   0.0000       0.224254         6.1023 
  27   0.0000       0.254680         6.9302 
  28   0.0000       0.292682         7.9643 
  29   0.0000       0.408635        11.1195 
  30   0.0000       0.426220        11.5980 
  31   0.0000       0.440340        11.9822 
  32   0.0000       0.484962        13.1965 
  33   0.0000       0.516917        14.0660 
  34   0.0000       0.537783        14.6338 
  35   0.0000       0.566129        15.4052 
  36   0.0000       0.609263        16.5789 
  37   0.0000       0.615717        16.7545 
  38   0.0000       0.631329        17.1793 
  39   0.0000       0.662458        18.0264 
  40   0.0000       0.672372        18.2962 
  41   0.0000       0.680076        18.5058 
  42   0.0000       0.692722        18.8499 
  43   0.0000       0.705459        19.1965 
  44   0.0000       0.714870        19.4526 
  45   0.0000       0.715431        19.4679 
  46   0.0000       0.730499        19.8779 
  47   0.0000       0.739040        20.1103 
  48   0.0000       0.749416        20.3926 
  49   0.0000       0.756110        20.5748 
  50   0.0000       0.799990        21.7688 
  51   0.0000       0.878633        23.9088 
  52   0.0000       0.923476        25.1291 
  53   0.0000       1.068746        29.0821 
  54   0.0000       1.386812        37.7371 
  55   0.0000       1.401523        38.1374 
  56   0.0000       1.752301        47.6825 
  57   0.0000       1.776949        48.3532 
  58   0.0000       1.811249        49.2866 
  59   0.0000       1.829846        49.7926 
  60   0.0000       1.915069        52.1117 
  61   0.0000       1.963325        53.4248 
  62   0.0000       1.965637        53.4877 
  63   0.0000       2.009914        54.6925 
  64   0.0000       2.088632        56.8346 
  65   0.0000       2.114140        57.5287 
  66   0.0000       2.151882        58.5557 
  67   0.0000       2.162564        58.8464 
  68   0.0000       2.209246        60.1166 
  69   0.0000       2.403779        65.4102 
  70   0.0000       2.426699        66.0338 
  71   0.0000       2.491706        67.8028 
  72   0.0000       2.694117        73.3107 
  73   0.0000       2.707678        73.6797 

                 SPIN DOWN ORBITALS
  NO   OCC          E(Eh)            E(eV) 
   0   1.0000     -10.181788      -277.0605 
   1   1.0000     -10.170235      -276.7462 
   2   1.0000     -10.166491      -276.6443 
   3   1.0000     -10.166431      -276.6427 
   4   1.0000      -0.798689       -21.7334 
   5   1.0000      -0.671539       -18.2735 
   6   1.0000      -0.646197       -17.5839 
   7   1.0000      -0.536686       -14.6040 
   8   1.0000      -0.464106       -12.6290 
   9   1.0000      -0.430523       -11.7151 
  10   1.0000      -0.414737       -11.2856 
  11   1.0000      -0.394406       -10.7323 
  12   1.0000      -0.369655       -10.0588 
  13   1.0000      -0.330213        -8.9855 
  14   1.0000      -0.321531        -8.7493 
  15   1.0000      -0.318855        -8.6765 
  16   0.0000      -0.066159        -1.8003 
  17   0.0000       0.055477         1.5096 
  18   0.0000       0.086092         2.3427 
  19   0.0000       0.103767         2.8236 
  20   0.0000       0.119603         3.2546 
  21   0.0000       0.130429         3.5492 
  22   0.0000       0.139542         3.7971 
  23   0.0000       0.145887         3.9698 
  24   0.0000       0.173863         4.7311 
  25   0.0000       0.180145         4.9020 
  26   0.0000       0.228358         6.2139 
  27   0.0000       0.257220         6.9993 
  28   0.0000       0.302485         8.2310 
  29   0.0000       0.417697        11.3661 
  30   0.0000       0.429352        11.6833 
  31   0.0000       0.444216        12.0877 
  32   0.0000       0.513114        13.9625 
  33   0.0000       0.525411        14.2972 
  34   0.0000       0.545281        14.8378 
  35   0.0000       0.577874        15.7247 
  36   0.0000       0.618514        16.8306 
  37   0.0000       0.628169        17.0933 
  38   0.0000       0.646857        17.6019 
  39   0.0000       0.668791        18.1987 
  40   0.0000       0.676286        18.4027 
  41   0.0000       0.687403        18.7052 
  42   0.0000       0.695740        18.9320 
  43   0.0000       0.707685        19.2571 
  44   0.0000       0.716321        19.4921 
  45   0.0000       0.718049        19.5391 
  46   0.0000       0.736276        20.0351 
  47   0.0000       0.743206        20.2237 
  48   0.0000       0.753166        20.4947 
  49   0.0000       0.763805        20.7842 
  50   0.0000       0.805519        21.9193 
  51   0.0000       0.885617        24.0989 
  52   0.0000       0.925319        25.1792 
  53   0.0000       1.071640        29.1608 
  54   0.0000       1.398552        38.0565 
  55   0.0000       1.410422        38.3795 
  56   0.0000       1.774401        48.2839 
  57   0.0000       1.800607        48.9970 
  58   0.0000       1.816451        49.4281 
  59   0.0000       1.854527        50.4643 
  60   0.0000       1.936235        52.6876 
  61   0.0000       1.971721        53.6533 
  62   0.0000       1.982917        53.9579 
  63   0.0000       2.036078        55.4045 
  64   0.0000       2.096758        57.0557 
  65   0.0000       2.121576        57.7310 
  66   0.0000       2.163217        58.8641 
  67   0.0000       2.169605        59.0379 
  68   0.0000       2.222180        60.4686 
  69   0.0000       2.416997        65.7698 
  70   0.0000       2.430921        66.1487 
  71   0.0000       2.497980        67.9735 
  72   0.0000       2.703149        73.5564 
  73   0.0000       2.713385        73.8350 

                    ********************************
                    * MULLIKEN POPULATION ANALYSIS *
                    ********************************

------------------------------------------
FOD BASED MULLIKEN REDUCED ORBITAL CHARGES
------------------------------------------
  0 C s       :    -0.000000  s :    -0.000000
      pz      :     0.000000  p :     0.000000
      px      :     0.000000
      py      :     0.000000
      dz2     :     0.000000  d :     0.000000
      dxz     :     0.000000
      dyz     :     0.000000
      dx2y2   :     0.000000
      dxy     :     0.000000
  1 C s       :     0.000000  s :     0.000000
      pz      :     0.000000  p :     0.000000
      px      :     0.000000
      py      :     0.000000
      dz2     :     0.000000  d :     0.000000
      dxz     :     0.000000
      dyz     :     0.000000
      dx2y2   :     0.000000
      dxy     :     0.000000
  2 C s       :    -0.000000  s :    -0.000000
      pz      :     0.000000  p :     0.000000
      px      :     0.000000
      py      :     0.000000
      dz2     :     0.000000  d :     0.000000
      dxz     :     0.000000
      dyz     :     0.000000
      dx2y2   :     0.000000
      dxy     :     0.000000
  3 C s       :    -0.000000  s :    -0.000000
      pz      :     0.000000  p :     0.000000
      px      :     0.000000
      py      :     0.000000
      dz2     :     0.000000  d :     0.000000
      dxz     :     0.000000
      dyz     :     0.000000
      dx2y2   :     0.000000
      dxy     :     0.000000
  4 H s       :     0.000000  s :     0.000000
  5 H s       :     0.000000  s :     0.000000
  6 H s       :     0.000000  s :     0.000000
  7 H s       :     0.000000  s :     0.000000
  8 H s       :     0.000000  s :     0.000000
  9 H s       :     0.000000  s :     0.000000
 10 H s       :     0.000000  s :     0.000000
 11 H s       :     0.000000  s :     0.000000
 12 H s       :     0.000000  s :     0.000000


                     *******************************
                     * LOEWDIN POPULATION ANALYSIS *
                     *******************************

-------------------------------------------
LOEWDIN ATOMIC CHARGES AND SPIN POPULATIONS
-------------------------------------------
   0 C :   -0.177773    0.002394
   1 C :   -0.211138    0.948873
   2 C :   -0.309486    0.015885
   3 C :   -0.298704    0.035833
   4 H :    0.111623    0.017768
   5 H :    0.102741   -0.013558
   6 H :    0.108448   -0.013315
   7 H :    0.111933    0.000367
   8 H :    0.119327    0.000381
   9 H :    0.113291    0.000619
  10 H :    0.109022    0.002858
  11 H :    0.109614    0.001463
  12 H :    0.111102    0.000432

----------------------------------------------------
LOEWDIN REDUCED ORBITAL CHARGES AND SPIN POPULATIONS
----------------------------------------------------
CHARGE
  0 C s       :     2.871087  s :     2.871087
      pz      :     1.067810  p :     3.193005
      px      :     1.064562
      py      :     1.060634
      dz2     :     0.030045  d :     0.113680
      dxz     :     0.013198
      dyz     :     0.015900
      dx2y2   :     0.029283
      dxy     :     0.025254
  1 C s       :     3.048997  s :     3.048997
      pz      :     1.059504  p :     3.100888
      px      :     1.047337
      py      :     0.994047
      dz2     :     0.009758  d :     0.061254
      dxz     :     0.018238
      dyz     :     0.007514
      dx2y2   :     0.017018
      dxy     :     0.008726
  2 C s       :     2.951620  s :     2.951620
      pz      :     1.105086  p :     3.282864
      px      :     1.097882
      py      :     1.079896
      dz2     :     0.007051  d :     0.075002
      dxz     :     0.023929
      dyz     :     0.015505
      dx2y2   :     0.009875
      dxy     :     0.018642
  3 C s       :     2.958805  s :     2.958805
      pz      :     1.101120  p :     3.263727
      px      :     1.087827
      py      :     1.074780
      dz2     :     0.024308  d :     0.076172
      dxz     :     0.008016
      dyz     :     0.010749
      dx2y2   :     0.018399
      dxy     :     0.014700
  4 H s       :     0.888377  s :     0.888377
  5 H s       :     0.897259  s :     0.897259
  6 H s       :     0.891552  s :     0.891552
  7 H s       :     0.888067  s :     0.888067
  8 H s       :     0.880673  s :     0.880673
  9 H s       :     0.886709  s :     0.886709
 10 H s       :     0.890978  s :     0.890978
 11 H s       :     0.890386  s :     0.890386
 12 H s       :     0.888898  s :     0.888898

SPIN
  0 C s       :    -0.001806  s :    -0.001806
      pz      :    -0.001716  p :    -0.008431
      px      :    -0.007030
      py      :     0.000315
      dz2     :     0.001344  d :     0.012630
      dxz     :     0.002290
      dyz     :     0.000790
      dx2y2   :     0.000635
      dxy     :     0.007572
  1 C s       :     0.095549  s :     0.095549
      pz      :     0.235297  p :     0.857116
      px      :     0.076206
      py      :     0.545612
      dz2     :    -0.000858  d :    -0.003791
      dxz     :    -0.000486
      dyz     :    -0.001148
      dx2y2   :    -0.001458
      dxy     :     0.000159
  2 C s       :     0.003600  s :     0.003600
      pz      :     0.000547  p :     0.012049
      px      :     0.007067
      py      :     0.004435
      dz2     :     0.000085  d :     0.000235
      dxz     :    -0.000117
      dyz     :     0.000244
      dx2y2   :    -0.000014
      dxy     :     0.000036
  3 C s       :     0.011877  s :     0.011877
      pz      :     0.004316  p :     0.024109
      px      :     0.009573
      py      :     0.010220
      dz2     :    -0.000189  d :    -0.000152
      dxz     :     0.000134
      dyz     :    -0.000008
      dx2y2   :    -0.000037
      dxy     :    -0.000052
  4 H s       :     0.017768  s :     0.017768
  5 H s       :    -0.013558  s :    -0.013558
  6 H s       :    -0.013315  s :    -0.013315
  7 H s       :     0.000367  s :     0.000367
  8 H s       :     0.000381  s :     0.000381
  9 H s       :     0.000619  s :     0.000619
 10 H s       :     0.002858  s :     0.002858
 11 H s       :     0.001463  s :     0.001463
 12 H s       :     0.000432  s :     0.000432


                      *****************************
                      * MAYER POPULATION ANALYSIS *
                      *****************************

  NA   - Mulliken gross atomic population
  ZA   - Total nuclear charge
  QA   - Mulliken gross atomic charge
  VA   - Mayer's total valence
  BVA  - Mayer's bonded valence
  FA   - Mayer's free valence

  ATOM       NA         ZA         QA         VA         BVA        FA
  0 C      6.1681     6.0000    -0.1681     4.2276     4.2241     0.0035
  1 C      6.1868     6.0000    -0.1868     3.8871     3.0273     0.8598
  2 C      6.2304     6.0000    -0.2304     3.9346     3.9343     0.0003
  3 C      6.2141     6.0000    -0.2141     3.9715     3.9707     0.0009
  4 H      0.9262     1.0000     0.0738     0.9382     0.9377     0.0004
  5 H      0.9153     1.0000     0.0847     0.9598     0.9582     0.0016
  6 H      0.9100     1.0000     0.0900     0.9482     0.9468     0.0014
  7 H      0.9073     1.0000     0.0927     0.9663     0.9663     0.0000
  8 H      0.9070     1.0000     0.0930     0.9562     0.9562     0.0000
  9 H      0.9062     1.0000     0.0938     0.9699     0.9699     0.0000
 10 H      0.9149     1.0000     0.0851     0.9533     0.9533     0.0000
 11 H      0.9096     1.0000     0.0904     0.9603     0.9603     0.0000
 12 H      0.9041     1.0000     0.0959     0.9616     0.9616     0.0000

  Mayer bond orders larger than 0.100000
B(  0-C ,  1-C ) :   1.0967 B(  0-C ,  2-C ) :   1.0758 B(  0-C ,  3-C ) :   1.1039 
B(  0-C ,  4-H ) :   0.9215 B(  1-C ,  5-H ) :   0.9484 B(  1-C ,  6-H ) :   0.9504 
B(  2-C ,  7-H ) :   0.9599 B(  2-C ,  8-H ) :   0.9540 B(  2-C ,  9-H ) :   0.9553 
B(  3-C , 10-H ) :   0.9538 B(  3-C , 11-H ) :   0.9573 B(  3-C , 12-H ) :   0.9557 


-------
TIMINGS
-------

Total SCF time: 0 days 0 hours 2 min 32 sec 

Total time                  ....     152.812 sec
Sum of individual times     ....     121.733 sec  ( 79.7%)

Fock matrix formation       ....      99.370 sec  ( 65.0%)
  XC integration            ....      42.110 sec  ( 42.4% of F)
    Basis function eval.    ....       0.735 sec  (  1.7% of XC)
    Density eval.           ....       0.523 sec  (  1.2% of XC)
    XC-Functional eval.     ....       0.311 sec  (  0.7% of XC)
    XC-Potential eval.      ....       0.841 sec  (  2.0% of XC)
Diagonalization             ....       2.239 sec  (  1.5%)
Density matrix formation    ....      11.499 sec  (  7.5%)
Population analysis         ....       4.032 sec  (  2.6%)
Initial guess               ....       0.254 sec  (  0.2%)
Orbital Transformation      ....       0.000 sec  (  0.0%)
Orbital Orthonormalization  ....       0.000 sec  (  0.0%)
DIIS solution               ....       3.194 sec  (  2.1%)
Grid generation             ....       1.144 sec  (  0.7%)


-------------------------------------------------------------------------------
                          DFT DISPERSION CORRECTION                            
                                                                               
                              DFTD3 V3.1  Rev 1                                
                          USING Becke-Johnson damping                          
-------------------------------------------------------------------------------
The B3LYP functional is recognized
Active option DFTDOPT                   ...         4   

molecular C6(AA) [au] = 1132.206056 


            DFT-D V3
 parameters
 s6 scaling factor         :     1.0000 
 a1 scaling factor         :     0.3981 
 s8 scaling factor         :     1.9889 
 a2 scaling factor         :     4.4211 
 ad hoc parameters k1-k3   :    16.0000     1.3333    -4.0000 

 Edisp/kcal,au: -9.185894033002  -0.014638652375 
 E6   /kcal   :  -4.556601334 
 E8   /kcal   :  -4.629292699 
 % E8         :  50.395668424 

-------------------------   ----------------
Dispersion correction           -0.014638652
-------------------------   ----------------


-------------------------   --------------------
FINAL SINGLE POINT ENERGY      -157.514970858920
-------------------------   --------------------

------------------------------------------------------------------------------
                         ORCA SCF GRADIENT CALCULATION
------------------------------------------------------------------------------

Gradient of the Kohn-Sham DFT energy:
Kohn-Sham wavefunction type      ... UKS
Hartree-Fock exchange scaling    ...    0.200
Number of operators              ...    2
Number of atoms                  ...   13
Basis set dimensions             ...   74
Integral neglect threshold       ... 1.0e-12
Integral primitive cutoff        ... 1.0e-14

Nuclear repulsion gradient       ... done
One Electron Gradient            ... done
Pre-screening matrix             ... done
Starting the two electron gradient:
Two electron gradient done
Exchange-correlation gradient    ... done
Dispersion correction            ... done

------------------
CARTESIAN GRADIENT
------------------

   1   C   :   -0.008437974   -0.022614131   -0.003528281
   2   C   :   -0.000674432    0.036767533   -0.018366285
   3   C   :   -0.000814280    0.022562347    0.002638493
   4   C   :   -0.009195453   -0.010397425   -0.018739148
   5   H   :    0.000541790    0.004902879    0.005984939
   6   H   :   -0.008740292   -0.013020652    0.011230427
   7   H   :   -0.006157358   -0.015442941    0.002648430
   8   H   :    0.001616558   -0.002950512    0.001980619
   9   H   :    0.000433215    0.013351720    0.002260914
  10   H   :    0.014567871    0.004911140   -0.006910248
  11   H   :    0.003999622   -0.009470655    0.004091585
  12   H   :    0.013953957   -0.002265190    0.011508571
  13   H   :   -0.001093225   -0.006334113    0.005199983

Difference to translation invariance:
           :    0.0000000000    0.0000000000   -0.0000000000

Norm of the cartesian gradient     ...    0.0711812736
RMS gradient                       ...    0.0113981259
MAX gradient                       ...    0.0367675331

-------
TIMINGS
-------

Total SCF gradient time            ...        4.602 sec

One electron gradient       ....       0.030 sec  (  0.7%)
Prescreening matrices       ....       0.028 sec  (  0.6%)
Two electron gradient       ....       1.466 sec  ( 31.9%)
XC gradient                 ....       2.684 sec  ( 58.3%)
------------------------------------------------------------------------------
                         ORCA GEOMETRY RELAXATION STEP
------------------------------------------------------------------------------

Reading the OPT-File                    .... done
Getting information on internals        .... done
Copying old internal coords+grads       .... done
Making the new internal coordinates     .... (new redundants).... done
Validating the new internal coordinates .... (new redundants).... done
Calculating the B-matrix                .... done
Calculating the G,G- and P matrices     .... done
Transforming gradient to internals      .... done
Projecting the internal gradient        .... done
Number of atoms                         ....  13
Number of internal coordinates          ....  57
Current Energy                          ....  -157.514970859 Eh
Current gradient norm                   ....     0.071181274 Eh/bohr
Maximum allowed component of the step   ....  0.300
Current trust radius                    ....  0.300
Evaluating the initial hessian          ....  (Almloef) done
Projecting the Hessian                  .... done
Forming the augmented Hessian           .... done
Diagonalizing the augmented Hessian     .... done
Last element of RFO vector              ....  0.937174652
Lowest eigenvalues of augmented Hessian:
 -0.023614078  0.012057291  0.012306824  0.013593492  0.071845595
Length of the computed step             ....  0.372247086
Warning: the length of the step is outside the trust region - taking restricted step instead
The input lambda is                     ....    -0.023614
   iter:   1  x=   -0.043849  g=    2.400199 f(x)=     0.048568
   iter:   2  x=   -0.052694  g=    1.360573 f(x)=     0.012034
   iter:   3  x=   -0.053750  g=    1.108517 f(x)=     0.001171
   iter:   4  x=   -0.053763  g=    1.083109 f(x)=     0.000013
   iter:   5  x=   -0.053763  g=    1.082814 f(x)=     0.000000
   iter:   6  x=   -0.053763  g=    1.082814 f(x)=     0.000000
The output lambda is                    ....    -0.053763 (6 iterations)
The final length of the internal step   ....  0.300000000
Converting the step to cartesian space:
 Initial RMS(Int)=    0.0397359707
Transforming coordinates:
 Iter   0:  RMS(Cart)=    0.0838671714 RMS(Int)=    0.0400719635
 Iter   1:  RMS(Cart)=    0.0037647643 RMS(Int)=    0.0029719985
 Iter   2:  RMS(Cart)=    0.0003149024 RMS(Int)=    0.0002309050
 Iter   3:  RMS(Cart)=    0.0000452973 RMS(Int)=    0.0000401642
 Iter   4:  RMS(Cart)=    0.0000049945 RMS(Int)=    0.0000035605
 Iter   5:  RMS(Cart)=    0.0000006993 RMS(Int)=    0.0000006096
 Iter   6:  RMS(Cart)=    0.0000000796 RMS(Int)=    0.0000000604
done
Storing new coordinates                 .... done

                                .--------------------.
          ----------------------|Geometry convergence|-------------------------
          Item                value                   Tolerance       Converged
          ---------------------------------------------------------------------
          RMS gradient        0.0104021049            0.0001000000      NO
          MAX gradient        0.0379096642            0.0003000000      NO
          RMS step            0.0397359707            0.0020000000      NO
          MAX step            0.1047925570            0.0040000000      NO
          ........................................................
          Max(Bonds)      0.0429      Max(Angles)    5.11
          Max(Dihed)        6.00      Max(Improp)    0.00
          ---------------------------------------------------------------------

The optimization has not yet converged - more geometry cycles are needed


    ---------------------------------------------------------------------------
                         Redundant Internal Coordinates
                            (Angstroem and degrees)

        Definition                    Value    dE/dq     Step     New-Value
    ----------------------------------------------------------------------------
     1. B(C   1,C   0)                1.5063 -0.014809  0.0170    1.5233   
     2. B(C   2,C   0)                1.5018 -0.037910  0.0429    1.5447   
     3. B(C   3,C   0)                1.5197 -0.027042  0.0324    1.5521   
     4. B(H   4,C   0)                1.1180  0.006254 -0.0087    1.1093   
     5. B(H   5,C   1)                1.1076  0.002412 -0.0033    1.1044   
     6. B(H   6,C   1)                1.1028 -0.000672  0.0009    1.1037   
     7. B(H   7,C   2)                1.1004 -0.003032  0.0040    1.1044   
     8. B(H   8,C   2)                1.0978 -0.004557  0.0060    1.1038   
     9. B(H   9,C   2)                1.1197  0.010487 -0.0147    1.1050   
    10. B(H  10,C   3)                1.1012 -0.002267  0.0030    1.1042   
    11. B(H  11,C   3)                1.1201  0.009546 -0.0134    1.1067   
    12. B(H  12,C   3)                1.0957 -0.004810  0.0063    1.1020   
    13. A(C   1,C   0,H   4)          106.66 -0.000816   -0.26    106.40   
    14. A(C   2,C   0,H   4)          112.26  0.007080   -1.76    110.49   
    15. A(C   1,C   0,C   2)          111.69 -0.005880    1.46    113.16   
    16. A(C   1,C   0,C   3)          112.33  0.007862   -0.97    111.36   
    17. A(C   2,C   0,C   3)          108.80 -0.006428    1.45    110.25   
    18. A(C   3,C   0,H   4)          104.94 -0.001004   -0.14    104.81   
    19. A(H   5,C   1,H   6)          106.34  0.002663    2.84    109.18   
    20. A(C   0,C   1,H   6)          113.44 -0.012699    3.43    116.88   
    21. A(C   0,C   1,H   5)          110.07 -0.023130    5.11    115.18   
    22. A(H   7,C   2,H   9)          106.99  0.003387   -0.40    106.59   
    23. A(C   0,C   2,H   9)          108.19 -0.015031    2.32    110.52   
    24. A(H   7,C   2,H   8)          107.00  0.003128   -0.40    106.60   
    25. A(C   0,C   2,H   8)          107.36 -0.013906    2.10    109.46   
    26. A(H   8,C   2,H   9)          113.35  0.015418   -2.71    110.64   
    27. A(C   0,C   2,H   7)          114.09  0.008265   -1.11    112.98   
    28. A(H  11,C   3,H  12)          113.54  0.012803   -2.23    111.32   
    29. A(H  10,C   3,H  12)          110.44  0.007498   -1.15    109.29   
    30. A(C   0,C   3,H  12)          110.10 -0.002008    0.32    110.42   
    31. A(H  10,C   3,H  11)          112.05  0.012825   -1.88    110.17   
    32. A(C   0,C   3,H  11)          104.70 -0.021263    3.33    108.03   
    33. A(C   0,C   3,H  10)          105.55 -0.013743    2.23    107.79   
    34. D(H   6,C   1,C   0,C   3)    120.98  0.013639   -5.72    115.25   
    35. D(H   6,C   1,C   0,H   4)      6.53  0.011268   -4.91      1.62   
    36. D(H   6,C   1,C   0,C   2)   -116.46  0.006654   -3.45   -119.91   
    37. D(H   5,C   1,C   0,H   4)    125.53 -0.009852    4.55    130.08   
    38. D(H   5,C   1,C   0,C   2)      2.54 -0.014466    6.00      8.54   
    39. D(H   5,C   1,C   0,C   3)   -120.02 -0.007480    3.73   -116.29   
    40. D(H   7,C   2,C   0,C   1)   -119.37 -0.000501   -0.42   -119.79   
    41. D(H   9,C   2,C   0,C   1)     -0.42 -0.001498   -0.01     -0.43   
    42. D(H   8,C   2,C   0,H   4)      2.51  0.000335   -0.15      2.36   
    43. D(H   8,C   2,C   0,C   1)    122.25  0.000080   -0.68    121.57   
    44. D(H   7,C   2,C   0,H   4)    120.89 -0.000246    0.11    120.99   
    45. D(H   7,C   2,C   0,C   3)      5.19  0.000886    0.39      5.58   
    46. D(H   9,C   2,C   0,C   3)    124.13 -0.000111    0.80    124.94   
    47. D(H   9,C   2,C   0,H   4)   -120.17 -0.001243    0.52   -119.65   
    48. D(H   8,C   2,C   0,C   3)   -113.19  0.001467    0.14   -113.06   
    49. D(H  12,C   3,C   0,H   4)   -173.86  0.000429   -0.58   -174.44   
    50. D(H  12,C   3,C   0,C   1)     70.65 -0.001883    0.29     70.93   
    51. D(H  11,C   3,C   0,H   4)     63.75 -0.001033   -0.09     63.66   
    52. D(H  11,C   3,C   0,C   2)   -175.93  0.003447   -1.49   -177.42   
    53. D(H  11,C   3,C   0,C   1)    -51.74 -0.003344    0.78    -50.97   
    54. D(H  10,C   3,C   0,H   4)    -54.67  0.000377   -0.49    -55.16   
    55. D(H  12,C   3,C   0,C   2)    -53.54  0.004908   -1.98    -55.52   
    56. D(H  10,C   3,C   0,C   2)     65.66  0.004857   -1.89     63.76   
    57. D(H  10,C   3,C   0,C   1)   -170.16 -0.001934    0.37   -169.79   
    ----------------------------------------------------------------------------

Time needed for optimization step       :     2.78 sec

         *************************************************************
         *                GEOMETRY OPTIMIZATION CYCLE   2            *
         *************************************************************
---------------------------------
CARTESIAN COORDINATES (ANGSTROEM)
---------------------------------
  C     -0.059041   -0.013423    0.389892
  C      1.452566   -0.003897    0.201729
  C     -0.733109   -1.284720   -0.171733
  C     -0.711775    1.255369   -0.221059
  H     -0.239470    0.072260    1.481051
  H      1.846772   -0.816683   -0.433572
  H      2.064166    0.055118    1.118520
  H     -1.472178   -1.067348   -0.963123
  H     -1.279648   -1.798964    0.637695
  H      0.020884   -1.956783   -0.619817
  H     -1.766390    1.281557    0.105238
  H     -0.171457    2.139025    0.168751
  H     -0.672463    1.215578   -1.321596

----------------------------
CARTESIAN COORDINATES (A.U.)
----------------------------
  NO LB      ZA    FRAG     MASS         X           Y           Z
   0 C     6.0000    0    12.011   -0.111571   -0.025365    0.736788
   1 C     6.0000    0    12.011    2.744951   -0.007365    0.381212
   2 C     6.0000    0    12.011   -1.385375   -2.427770   -0.324529
   3 C     6.0000    0    12.011   -1.345061    2.372304   -0.417741
   4 H     1.0000    0     1.008   -0.452533    0.136551    2.798781
   5 H     1.0000    0     1.008    3.489894   -1.543308   -0.819332
   6 H     1.0000    0     1.008    3.900708    0.104157    2.113696
   7 H     1.0000    0     1.008   -2.782014   -2.016995   -1.820039
   8 H     1.0000    0     1.008   -2.418185   -3.399550    1.205068
   9 H     1.0000    0     1.008    0.039466   -3.697784   -1.171284
  10 H     1.0000    0     1.008   -3.337993    2.421792    0.198871
  11 H     1.0000    0     1.008   -0.324006    4.042172    0.318894
  12 H     1.0000    0     1.008   -1.270770    2.297109   -2.497455

--------------------------------
INTERNAL COORDINATES (ANGSTROEM)
--------------------------------
 C      0   0   0     0.000000000000     0.00000000     0.00000000
 C      1   0   0     1.523302368417     0.00000000     0.00000000
 C      1   2   0     1.544664494968   113.15804616     0.00000000
 C      1   2   3     1.552145354702   111.31996398   235.17464758
 H      1   2   3     1.109290182455   106.40499871   121.53568363
 H      2   1   3     1.104367008876   114.87676512     8.68407713
 H      2   1   3     1.103650403405   116.59181345   239.93998957
 H      3   1   2     1.104433003277   112.98988726   240.19465399
 H      3   1   2     1.103777789864   109.44430630   121.57240372
 H      3   1   2     1.104967248834   110.50245050   359.53896647
 H      4   1   2     1.104249601249   107.74071936   190.18429434
 H      4   1   2     1.106681954796   107.98344217   309.05060866
 H      4   1   2     1.101957774088   110.40103867    70.92960990

---------------------------
INTERNAL COORDINATES (A.U.)
---------------------------
 C      0   0   0     0.000000000000     0.00000000     0.00000000
 C      1   0   0     2.878624295462     0.00000000     0.00000000
 C      1   2   0     2.918992864282   113.15804616     0.00000000
 C      1   2   3     2.933129640425   111.31996398   235.17464758
 H      1   2   3     2.096254647888   106.40499871   121.53568363
 H      2   1   3     2.086951198114   114.87676512     8.68407713
 H      2   1   3     2.085597010028   116.59181345   239.93998957
 H      3   1   2     2.087075909458   112.98988726   240.19465399
 H      3   1   2     2.085837735547   109.44430630   121.57240372
 H      3   1   2     2.088085487249   110.50245050   359.53896647
 H      4   1   2     2.086729329852   107.74071936   190.18429434
 H      4   1   2     2.091325811917   107.98344217   309.05060866
 H      4   1   2     2.082398404172   110.40103867    70.92960990


Diagonalization of the overlap matrix:
Smallest eigenvalue                        ... 2.223e-03
Time for diagonalization                   ...    0.001 sec
Threshold for overlap eigenvalues          ... 1.000e-08
Number of eigenvalues below threshold      ... 0
Time for construction of square roots      ...    3.091 sec
Total time needed                          ...    3.092 sec

-------------------
DFT GRID GENERATION
-------------------

General Integration Accuracy     IntAcc      ...  4.340
Radial Grid Type                 RadialGrid  ... Gauss-Chebyshev
Angular Grid (max. acc.)         AngularGrid ... Lebedev-110
Angular grid pruning method      GridPruning ... 3 (G Style)
Weight generation scheme         WeightScheme... Becke
Basis function cutoff            BFCut       ...    1.0000e-12
Integration weight cutoff        WCut        ...    1.0000e-14
Grids for H and He will be reduced by one unit

# of grid points (after initial pruning)     ...  13770 (   0.0 sec)
# of grid points (after weights+screening)   ...  12911 (   0.0 sec)
nearest neighbour list constructed           ...    0.0 sec
Grid point re-assignment to atoms done       ...    0.0 sec
Grid point division into batches done        ...    0.0 sec
Reduced shell lists constructed in    0.1 sec

Total number of grid points                  ...    12911
Total number of batches                      ...      208
Average number of points per batch           ...       62
Average number of grid points per atom       ...      993
Average number of shells per batch           ...    37.09 (88.31%)
Average number of basis functions per batch  ...    66.04 (89.24%)
Average number of large shells per batch     ...    32.28 (87.02%)
Average number of large basis fcns per batch ...    57.14 (86.52%)
Maximum spatial batch extension              ...  20.71, 20.47, 18.56 au
Average spatial batch extension              ...   4.09,  4.09,  3.90 au

Time for grid setup =    1.202 sec

--------------
SCF ITERATIONS
--------------
ITER       Energy         Delta-E        Max-DP      RMS-DP      [F,P]     Damp
               ***  Starting incremental Fock matrix formation  ***
  0   -157.5117462738   0.000000000000 0.00361640  0.00018427  0.0171150 0.7000
  1   -157.5125435753  -0.000797301499 0.00344890  0.00016897  0.0140396 0.7000
                               ***Turning on DIIS***
  2   -157.5131670580  -0.000623482681 0.00914781  0.00044445  0.0110198 0.0000
  3   -157.5147668402  -0.001599782216 0.00237486  0.00008807  0.0028040 0.0000
  4   -157.5148148613  -0.000048021113 0.00103232  0.00004642  0.0014373 0.0000
  5   -157.5148283635  -0.000013502147 0.00129061  0.00004957  0.0007709 0.0000
  6   -157.5148345119  -0.000006148366 0.00028421  0.00001254  0.0003021 0.0000
  7   -157.5148350951  -0.000000583202 0.00005593  0.00000281  0.0000513 0.0000
  8   -157.5148351235  -0.000000028491 0.00002452  0.00000095  0.0000303 0.0000
  9   -157.5148351279  -0.000000004310 0.00000798  0.00000032  0.0000094 0.0000
 10   -157.5148351283  -0.000000000477 0.00000309  0.00000012  0.0000018 0.0000
 11   -157.5148351284  -0.000000000060 0.00000144  0.00000004  0.0000007 0.0000
 12   -157.5148351284  -0.000000000008 0.00000036  0.00000001  0.0000004 0.0000
 13   -157.5148351284  -0.000000000008 0.00000017  0.00000001  0.0000002 0.0000
 14   -157.5148351284   0.000000000015 0.00000007  0.00000000  0.0000001 0.0000
                 **** Energy Check signals convergence ****

 Fermi smearing  (ALPHA): E(HOMO(Eh)) = -0.326211 MUE = -0.081952 gap=   7.487 eV
 Fermi smearing   (BETA): E(HOMO(Eh)) = -0.322091 MUE = -0.188619 gap=   7.167 eV

N_FOD(alpha) =  0.000000
 N_FOD(beta) =  0.000000
       N_FOD =  0.000000

               *****************************************************
               *                     SUCCESS                       *
               *           SCF CONVERGED AFTER  15 CYCLES          *
               *****************************************************

Setting up the final grid:

General Integration Accuracy     IntAcc      ...  4.670
Radial Grid Type                 RadialGrid  ... Gauss-Chebyshev
Angular Grid (max. acc.)         AngularGrid ... Lebedev-302
Angular grid pruning method      GridPruning ... 3 (G Style)
Weight generation scheme         WeightScheme... Becke
Basis function cutoff            BFCut       ...    1.0000e-12
Integration weight cutoff        WCut        ...    1.0000e-14
Grids for H and He will be reduced by one unit

# of grid points (after initial pruning)     ...  55394 (   0.0 sec)
# of grid points (after weights+screening)   ...  51267 (   0.1 sec)
nearest neighbour list constructed           ...    0.0 sec
Grid point re-assignment to atoms done       ...    0.0 sec
Grid point division into batches done        ...    0.1 sec
Reduced shell lists constructed in    0.3 sec

Total number of grid points                  ...    51267
Total number of batches                      ...      808
Average number of points per batch           ...       63
Average number of grid points per atom       ...     3944
Average number of shells per batch           ...    34.89 (83.07%)
Average number of basis functions per batch  ...    62.00 (83.79%)
Average number of large shells per batch     ...    29.73 (85.21%)
Average number of large basis fcns per batch ...    52.24 (84.25%)
Maximum spatial batch extension              ...  20.09, 18.20, 19.76 au
Average spatial batch extension              ...   2.62,  2.68,  2.60 au

Final grid set up in    2.7 sec
Final integration                            ... done (  12.2 sec)
Change in XC energy                          ...     0.000425435
Integrated number of electrons               ...    33.000038922
Previous integrated no of electrons          ...    33.006381972
Total Energy       :         -157.51440969 Eh           -4286.18499 eV
  Last Energy change         ...   -2.1458e-11  Tolerance :   1.0000e-09
  Last MAX-Density change    ...    3.0054e-08  Tolerance :   1.0000e-08
             **** THE GBW FILE WAS UPDATED (orca1.gbw) ****
             **** DENSITY FILE WAS UPDATED (orca1.scfp) ****
             **** ENERGY FILE WAS UPDATED (orca1.en.tmp) ****
             **** THE GBW FILE WAS UPDATED (orca1.gbw) ****
             **** DENSITY FILE WAS UPDATED (orca1.scfp) ****
Total SCF time: 0 days 0 hours 6 min 24 sec 


-------------------------------------------------------------------------------
                          DFT DISPERSION CORRECTION                            
                                                                               
                              DFTD3 V3.1  Rev 1                                
                          USING Becke-Johnson damping                          
-------------------------------------------------------------------------------
-------------------------   ----------------
Dispersion correction           -0.014296663
-------------------------   ----------------


-------------------------   --------------------
FINAL SINGLE POINT ENERGY      -157.528706356100
-------------------------   --------------------

------------------------------------------------------------------------------
                         ORCA SCF GRADIENT CALCULATION
------------------------------------------------------------------------------

Gradient of the Kohn-Sham DFT energy:
Kohn-Sham wavefunction type      ... UKS
Hartree-Fock exchange scaling    ...    0.200
Number of operators              ...    2
Number of atoms                  ...   13
Basis set dimensions             ...   74
Integral neglect threshold       ... 1.0e-12
Integral primitive cutoff        ... 1.0e-14

Nuclear repulsion gradient       ... done
One Electron Gradient            ... done
Pre-screening matrix             ... done
Starting the two electron gradient:
Two electron gradient done
Exchange-correlation gradient    ... done
Dispersion correction            ... done

------------------
CARTESIAN GRADIENT
------------------

   1   C   :   -0.006064674   -0.014207257    0.005545322
   2   C   :    0.005719989    0.027783221   -0.012916920
   3   C   :    0.000057291    0.000870280   -0.002785447
   4   C   :   -0.005002230    0.006293567   -0.010433463
   5   H   :    0.000904482    0.003361621    0.001683051
   6   H   :   -0.001688197   -0.008494941    0.008432012
   7   H   :   -0.000223780   -0.011636062    0.002491667
   8   H   :   -0.000138088   -0.002764887    0.000260662
   9   H   :   -0.001575374    0.005465257    0.001985949
  10   H   :    0.002962110    0.003880457   -0.003111197
  11   H   :    0.001337221   -0.004346122    0.002411374
  12   H   :    0.004906645   -0.002701097    0.004933363
  13   H   :   -0.001195394   -0.003504037    0.001503626

Difference to translation invariance:
           :    0.0000000000    0.0000000000   -0.0000000000

Norm of the cartesian gradient     ...    0.0436037249
RMS gradient                       ...    0.0069821840
MAX gradient                       ...    0.0277832210

-------
TIMINGS
-------

Total SCF gradient time            ...        4.803 sec

One electron gradient       ....       0.028 sec  (  0.6%)
Prescreening matrices       ....       0.026 sec  (  0.5%)
Two electron gradient       ....       1.395 sec  ( 29.0%)
XC gradient                 ....       2.400 sec  ( 50.0%)
------------------------------------------------------------------------------
                         ORCA GEOMETRY RELAXATION STEP
------------------------------------------------------------------------------

Reading the OPT-File                    .... done
Getting information on internals        .... done
Copying old internal coords+grads       .... done
Making the new internal coordinates     .... (new redundants).... done
Validating the new internal coordinates .... (new redundants).... done
Calculating the B-matrix                .... done
Calculating the G,G- and P matrices     .... done
Transforming gradient to internals      .... done
Projecting the internal gradient        .... done
Number of atoms                         ....  13
Number of internal coordinates          ....  57
Current Energy                          ....  -157.528706356 Eh
Current gradient norm                   ....     0.043603725 Eh/bohr
Maximum allowed component of the step   ....  0.300
Current trust radius                    ....  0.300
Updating the Hessian (BFGS)             .... done
Forming the augmented Hessian           .... done
Diagonalizing the augmented Hessian     .... done
Last element of RFO vector              ....  0.952665978
Lowest eigenvalues of augmented Hessian:
 -0.007873082  0.012052150  0.012307057  0.013596236  0.066272275
Length of the computed step             ....  0.319124412
Warning: the length of the step is outside the trust region - taking restricted step instead
The input lambda is                     ....    -0.007873
   iter:   1  x=   -0.011625  g=    3.155774 f(x)=     0.011840
   iter:   2  x=   -0.012065  g=    2.583718 f(x)=     0.001137
   iter:   3  x=   -0.012070  g=    2.528478 f(x)=     0.000012
   iter:   4  x=   -0.012070  g=    2.527882 f(x)=     0.000000
   iter:   5  x=   -0.012070  g=    2.527882 f(x)=     0.000000
The output lambda is                    ....    -0.012070 (5 iterations)
The final length of the internal step   ....  0.300000000
Converting the step to cartesian space:
 Initial RMS(Int)=    0.0397359707
Transforming coordinates:
 Iter   0:  RMS(Cart)=    0.0528472493 RMS(Int)=    0.0400508664
 Iter   1:  RMS(Cart)=    0.0030546351 RMS(Int)=    0.0024405228
 Iter   2:  RMS(Cart)=    0.0001893819 RMS(Int)=    0.0001803500
 Iter   3:  RMS(Cart)=    0.0000216125 RMS(Int)=    0.0000189366
 Iter   4:  RMS(Cart)=    0.0000020083 RMS(Int)=    0.0000016914
 Iter   5:  RMS(Cart)=    0.0000002289 RMS(Int)=    0.0000002112
 Iter   6:  RMS(Cart)=    0.0000000244 RMS(Int)=    0.0000000197
done
Storing new coordinates                 .... done

                                .--------------------.
          ----------------------|Geometry convergence|-------------------------
          Item                value                   Tolerance       Converged
          ---------------------------------------------------------------------
          Energy change      -0.0137354972            0.0000050000      NO
          RMS gradient        0.0038195099            0.0001000000      NO
          MAX gradient        0.0090354869            0.0003000000      NO
          RMS step            0.0397359707            0.0020000000      NO
          MAX step            0.1136467318            0.0040000000      NO
          ........................................................
          Max(Bonds)      0.0119      Max(Angles)    4.54
          Max(Dihed)        6.51      Max(Improp)    0.00
          ---------------------------------------------------------------------

The optimization has not yet converged - more geometry cycles are needed


    ---------------------------------------------------------------------------
                         Redundant Internal Coordinates
                            (Angstroem and degrees)

        Definition                    Value    dE/dq     Step     New-Value
    ----------------------------------------------------------------------------
     1. B(C   1,C   0)                1.5233  0.004073 -0.0072    1.5161   
     2. B(C   2,C   0)                1.5447 -0.005372  0.0119    1.5566   
     3. B(C   3,C   0)                1.5521 -0.002882  0.0070    1.5591   
     4. B(H   4,C   0)                1.1093  0.001768 -0.0044    1.1049   
     5. B(H   5,C   1)                1.1044  0.000804 -0.0019    1.1024   
     6. B(H   6,C   1)                1.1037  0.001322 -0.0030    1.1007   
     7. B(H   7,C   2)                1.1044 -0.000633  0.0015    1.1060   
     8. B(H   8,C   2)                1.1038 -0.000311  0.0009    1.1046   
     9. B(H   9,C   2)                1.1050  0.000919 -0.0025    1.1024   
    10. B(H  10,C   3)                1.1042 -0.000670  0.0016    1.1058   
    11. B(H  11,C   3)                1.1067  0.001983 -0.0051    1.1016   
    12. B(H  12,C   3)                1.1020 -0.001423  0.0033    1.1053   
    13. A(C   1,C   0,H   4)          106.40 -0.001384    0.57    106.97   
    14. A(C   2,C   0,H   4)          110.50  0.002952   -1.34    109.16   
    15. A(C   1,C   0,C   2)          113.16 -0.000223   -0.07    113.09   
    16. A(C   1,C   0,C   3)          111.32  0.002289   -0.55    110.77   
    17. A(C   2,C   0,C   3)          110.25 -0.002771    0.76    111.02   
    18. A(C   3,C   0,H   4)          104.81 -0.000765    0.60    105.41   
    19. A(H   5,C   1,H   6)          108.63 -0.001393    4.54    113.16   
    20. A(C   0,C   1,H   6)          116.59 -0.003707    2.88    119.47   
    21. A(C   0,C   1,H   5)          114.88 -0.008099    4.17    119.05   
    22. A(H   7,C   2,H   9)          106.60 -0.000545    0.30    106.90   
    23. A(C   0,C   2,H   9)          110.50 -0.004900    1.27    111.77   
    24. A(H   7,C   2,H   8)          106.61 -0.000023    0.23    106.84   
    25. A(C   0,C   2,H   8)          109.44 -0.006155    1.62    111.06   
    26. A(H   8,C   2,H   9)          110.60  0.006893   -2.36    108.25   
    27. A(C   0,C   2,H   7)          112.99  0.005336   -1.24    111.75   
    28. A(H  11,C   3,H  12)          111.30  0.006197   -2.04    109.25   
    29. A(H  10,C   3,H  12)          109.27  0.003333   -0.80    108.47   
    30. A(C   0,C   3,H  12)          110.40 -0.000785    0.20    110.60   
    31. A(H  10,C   3,H  11)          110.08  0.006012   -1.39    108.69   
    32. A(C   0,C   3,H  11)          107.98 -0.009035    2.51    110.49   
    33. A(C   0,C   3,H  10)          107.74 -0.006205    1.88    109.63   
    34. D(H   6,C   1,C   0,C   3)    115.11  0.007506   -5.73    109.38   
    35. D(H   6,C   1,C   0,H   4)      1.48  0.008050   -6.51     -5.04   
    36. D(H   6,C   1,C   0,C   2)   -120.06  0.005452   -5.18   -125.24   
    37. D(H   5,C   1,C   0,H   4)    130.22 -0.005941    4.97    135.19   
    38. D(H   5,C   1,C   0,C   2)      8.68 -0.008539    6.31     14.99   
    39. D(H   5,C   1,C   0,C   3)   -116.14 -0.006485    5.75   -110.39   
    40. D(H   7,C   2,C   0,C   1)   -119.81 -0.000362    0.26   -119.54   
    41. D(H   9,C   2,C   0,C   1)     -0.46 -0.000909    0.72      0.26   
    42. D(H   8,C   2,C   0,H   4)      2.37  0.000297   -0.09      2.28   
    43. D(H   8,C   2,C   0,C   1)    121.57  0.000446   -0.36    121.21   
    44. D(H   7,C   2,C   0,H   4)    120.99 -0.000511    0.53    121.52   
    45. D(H   7,C   2,C   0,C   3)      5.60  0.000322    0.11      5.71   
    46. D(H   9,C   2,C   0,C   3)    124.94 -0.000225    0.57    125.52   
    47. D(H   9,C   2,C   0,H   4)   -119.66 -0.001059    0.99   -118.67   
    48. D(H   8,C   2,C   0,C   3)   -113.03  0.001131   -0.51   -113.54   
    49. D(H  12,C   3,C   0,H   4)   -174.44  0.000094   -0.83   -175.27   
    50. D(H  12,C   3,C   0,C   1)     70.93  0.001061   -1.59     69.34   
[...]

             **** THE GBW FILE WAS UPDATED (orca1.gbw) ****
             **** DENSITY FILE WAS UPDATED (orca1.scfp) ****
             **** ENERGY FILE WAS UPDATED (orca1.en.tmp) ****
             **** THE GBW FILE WAS UPDATED (orca1.gbw) ****
             **** DENSITY FILE WAS UPDATED (orca1.scfp) ****
----------------
ORBITAL ENERGIES
----------------
                 SPIN UP ORBITALS
  NO   OCC          E(Eh)            E(eV) 
   0   1.0000     -10.187785      -277.2237 
   1   1.0000     -10.180162      -277.0163 
   2   1.0000     -10.170430      -276.7515 
   3   1.0000     -10.167835      -276.6808 
   4   1.0000      -0.793236       -21.5851 
   5   1.0000      -0.671143       -18.2627 
   6   1.0000      -0.661362       -17.9966 
   7   1.0000      -0.549902       -14.9636 
   8   1.0000      -0.461888       -12.5686 
   9   1.0000      -0.432355       -11.7650 
  10   1.0000      -0.421534       -11.4705 
  11   1.0000      -0.386893       -10.5279 
  12   1.0000      -0.377635       -10.2760 
  13   1.0000      -0.344848        -9.3838 
  14   1.0000      -0.339303        -9.2329 
  15   1.0000      -0.327868        -8.9218 
  16   1.0000      -0.202073        -5.4987 
  17   0.0000       0.058585         1.5942 
  18   0.0000       0.098057         2.6683 
  19   0.0000       0.105778         2.8784 
  20   0.0000       0.113273         3.0823 
  21   0.0000       0.121988         3.3195 
  22   0.0000       0.140631         3.8268 
  23   0.0000       0.145818         3.9679 
  24   0.0000       0.164895         4.4870 
  25   0.0000       0.175249         4.7688 
  26   0.0000       0.207686         5.6514 
  27   0.0000       0.244235         6.6460 
  28   0.0000       0.258712         7.0399 
  29   0.0000       0.396032        10.7766 
  30   0.0000       0.418944        11.4001 
  31   0.0000       0.426203        11.5976 
  32   0.0000       0.447231        12.1698 
  33   0.0000       0.473495        12.8845 
  34   0.0000       0.499252        13.5854 
  35   0.0000       0.575543        15.6613 
  36   0.0000       0.603149        16.4125 
  37   0.0000       0.639922        17.4132 
  38   0.0000       0.660114        17.9626 
  39   0.0000       0.663080        18.0433 
  40   0.0000       0.664270        18.0757 
  41   0.0000       0.694442        18.8967 
  42   0.0000       0.701155        19.0794 
  43   0.0000       0.705511        19.1979 
  44   0.0000       0.709697        19.3118 
  45   0.0000       0.721034        19.6203 
  46   0.0000       0.725073        19.7302 
  47   0.0000       0.737277        20.0623 
  48   0.0000       0.751427        20.4474 
  49   0.0000       0.755435        20.5564 
  50   0.0000       0.852332        23.1931 
  51   0.0000       0.934839        25.4383 
  52   0.0000       1.038868        28.2690 
  53   0.0000       1.088152        29.6101 
  54   0.0000       1.398585        38.0574 
  55   0.0000       1.521409        41.3996 
  56   0.0000       1.672662        45.5154 
  57   0.0000       1.742146        47.4062 
  58   0.0000       1.752751        47.6948 
  59   0.0000       1.818417        49.4816 
  60   0.0000       1.907494        51.9056 
  61   0.0000       1.934443        52.6389 
  62   0.0000       1.979897        53.8757 
  63   0.0000       2.015146        54.8349 
  64   0.0000       2.046345        55.6839 
  65   0.0000       2.077205        56.5236 
  66   0.0000       2.138765        58.1988 
  67   0.0000       2.146374        58.4058 
  68   0.0000       2.175293        59.1927 
  69   0.0000       2.422369        65.9160 
  70   0.0000       2.431565        66.1662 
  71   0.0000       2.498482        67.9872 
  72   0.0000       2.670054        72.6559 
  73   0.0000       2.680034        72.9274 

                 SPIN DOWN ORBITALS
  NO   OCC          E(Eh)            E(eV) 
   0   1.0000     -10.188697      -277.2485 
   1   1.0000     -10.168944      -276.7110 
   2   1.0000     -10.167634      -276.6754 
   3   1.0000     -10.165544      -276.6185 
   4   1.0000      -0.785851       -21.3841 
   5   1.0000      -0.669377       -18.2147 
   6   1.0000      -0.637548       -17.3486 
   7   1.0000      -0.541200       -14.7268 
   8   1.0000      -0.457294       -12.4436 
   9   1.0000      -0.429606       -11.6902 
  10   1.0000      -0.414696       -11.2845 
  11   1.0000      -0.384027       -10.4499 
  12   1.0000      -0.374210       -10.1828 
  13   1.0000      -0.337957        -9.1963 
  14   1.0000      -0.334802        -9.1104 
  15   1.0000      -0.325590        -8.8598 
  16   0.0000      -0.045253        -1.2314 
  17   0.0000       0.060140         1.6365 
  18   0.0000       0.099531         2.7084 
  19   0.0000       0.111475         3.0334 
  20   0.0000       0.117075         3.1858 
  21   0.0000       0.124613         3.3909 
  22   0.0000       0.141900         3.8613 
  23   0.0000       0.147946         4.0258 
  24   0.0000       0.166077         4.5192 
  25   0.0000       0.177033         4.8173 
  26   0.0000       0.211182         5.7466 
  27   0.0000       0.245911         6.6916 
  28   0.0000       0.267104         7.2683 
  29   0.0000       0.398875        10.8540 
  30   0.0000       0.423247        11.5171 
  31   0.0000       0.432699        11.7743 
  32   0.0000       0.451345        12.2817 
  33   0.0000       0.481351        13.0982 
  34   0.0000       0.546588        14.8734 
  35   0.0000       0.594438        16.1755 
  36   0.0000       0.612800        16.6751 
  37   0.0000       0.645181        17.5563 
  38   0.0000       0.664421        18.0798 
  39   0.0000       0.664792        18.0899 
  40   0.0000       0.672606        18.3025 
  41   0.0000       0.697133        18.9700 
  42   0.0000       0.702776        19.1235 
  43   0.0000       0.709565        19.3083 
  44   0.0000       0.714010        19.4292 
  45   0.0000       0.723105        19.6767 
  46   0.0000       0.729646        19.8547 
  47   0.0000       0.743335        20.2272 
  48   0.0000       0.753984        20.5169 
  49   0.0000       0.762772        20.7561 
  50   0.0000       0.858223        23.3534 
  51   0.0000       0.941054        25.6074 
  52   0.0000       1.040702        28.3190 
  53   0.0000       1.091718        29.7072 
  54   0.0000       1.409248        38.3476 
  55   0.0000       1.527013        41.5521 
  56   0.0000       1.722221        46.8640 
  57   0.0000       1.745829        47.5064 
  58   0.0000       1.776427        48.3390 
  59   0.0000       1.834217        49.9116 
  60   0.0000       1.921742        52.2933 
  61   0.0000       1.938665        52.7538 
  62   0.0000       1.988280        54.1039 
  63   0.0000       2.046060        55.6761 
  64   0.0000       2.076846        56.5138 
  65   0.0000       2.090401        56.8827 
  66   0.0000       2.142286        58.2946 
  67   0.0000       2.147632        58.4400 
  68   0.0000       2.182260        59.3823 
  69   0.0000       2.426476        66.0278 
  70   0.0000       2.443356        66.4871 
  71   0.0000       2.503204        68.1156 
  72   0.0000       2.677498        72.8584 
  73   0.0000       2.684278        73.0429 

                    ********************************
                    * MULLIKEN POPULATION ANALYSIS *
                    ********************************

------------------------------------------
FOD BASED MULLIKEN REDUCED ORBITAL CHARGES
------------------------------------------
  0 C s       :    -0.000000  s :    -0.000000
      pz      :     0.000000  p :     0.000000
      px      :     0.000000
      py      :     0.000000
      dz2     :     0.000000  d :     0.000000
      dxz     :     0.000000
      dyz     :     0.000000
      dx2y2   :     0.000000
      dxy     :     0.000000
  1 C s       :    -0.000000  s :    -0.000000
      pz      :     0.000000  p :     0.000000
      px      :     0.000000
      py      :     0.000000
      dz2     :     0.000000  d :     0.000000
      dxz     :     0.000000
      dyz     :     0.000000
      dx2y2   :     0.000000
      dxy     :     0.000000
  2 C s       :    -0.000000  s :    -0.000000
      pz      :     0.000000  p :     0.000000
      px      :     0.000000
      py      :     0.000000
      dz2     :     0.000000  d :     0.000000
      dxz     :     0.000000
      dyz     :     0.000000
      dx2y2   :     0.000000
      dxy     :     0.000000
  3 C s       :    -0.000000  s :    -0.000000
      pz      :     0.000000  p :     0.000000
      px      :     0.000000
      py      :     0.000000
      dz2     :     0.000000  d :     0.000000
      dxz     :     0.000000
      dyz     :     0.000000
      dx2y2   :     0.000000
      dxy     :     0.000000
  4 H s       :     0.000000  s :     0.000000
  5 H s       :     0.000000  s :     0.000000
  6 H s       :     0.000000  s :     0.000000
  7 H s       :     0.000000  s :     0.000000
  8 H s       :     0.000000  s :     0.000000
  9 H s       :     0.000000  s :     0.000000
 10 H s       :     0.000000  s :     0.000000
 11 H s       :     0.000000  s :     0.000000
 12 H s       :     0.000000  s :     0.000000


                     *******************************
                     * LOEWDIN POPULATION ANALYSIS *
                     *******************************

-------------------------------------------
LOEWDIN ATOMIC CHARGES AND SPIN POPULATIONS
-------------------------------------------
   0 C :   -0.160743   -0.012743
   1 C :   -0.221163    0.977706
   2 C :   -0.308838    0.007843
   3 C :   -0.307695    0.050002
   4 H :    0.114191    0.019714
   5 H :    0.113065   -0.025935
   6 H :    0.111735   -0.025649
   7 H :    0.109506   -0.000226
   8 H :    0.109824   -0.000005
   9 H :    0.111504    0.000608
  10 H :    0.109011    0.008473
  11 H :    0.109919    0.000029
  12 H :    0.109684    0.000182

----------------------------------------------------
LOEWDIN REDUCED ORBITAL CHARGES AND SPIN POPULATIONS
----------------------------------------------------
CHARGE
  0 C s       :     2.876651  s :     2.876651
      pz      :     1.070975  p :     3.172850
      px      :     1.058573
      py      :     1.043302
      dz2     :     0.031346  d :     0.111243
      dxz     :     0.012536
      dyz     :     0.012798
      dx2y2   :     0.028000
      dxy     :     0.026562
  1 C s       :     3.017876  s :     3.017876
      pz      :     1.062387  p :     3.146377
      px      :     1.057366
      py      :     1.026625
      dz2     :     0.009538  d :     0.056909
      dxz     :     0.016407
      dyz     :     0.007243
      dx2y2   :     0.009759
      dxy     :     0.013961
  2 C s       :     2.956608  s :     2.956608
      pz      :     1.107433  p :     3.279540
      px      :     1.095428
      py      :     1.076679
      dz2     :     0.024431  d :     0.072690
      dxz     :     0.005283
      dyz     :     0.009488
      dx2y2   :     0.020967
      dxy     :     0.012521
  3 C s       :     2.963870  s :     2.963870
      pz      :     1.112252  p :     3.271495
      px      :     1.092496
      py      :     1.066747
      dz2     :     0.022964  d :     0.072330
      dxz     :     0.005438
      dyz     :     0.010835
      dx2y2   :     0.019772
      dxy     :     0.013321
  4 H s       :     0.885809  s :     0.885809
  5 H s       :     0.886935  s :     0.886935
  6 H s       :     0.888265  s :     0.888265
  7 H s       :     0.890494  s :     0.890494
  8 H s       :     0.890176  s :     0.890176
  9 H s       :     0.888496  s :     0.888496
 10 H s       :     0.890989  s :     0.890989
 11 H s       :     0.890081  s :     0.890081
 12 H s       :     0.890316  s :     0.890316

SPIN
  0 C s       :    -0.005135  s :    -0.005135
      pz      :    -0.005118  p :    -0.024130
      px      :    -0.016111
      py      :    -0.002900
      dz2     :     0.002660  d :     0.016521
      dxz     :     0.003828
      dyz     :     0.000178
      dx2y2   :     0.000739
      dxy     :     0.009115
  1 C s       :     0.040608  s :     0.040608
      pz      :     0.308514  p :     0.940948
      px      :     0.048070
      py      :     0.584364
      dz2     :    -0.000380  d :    -0.003849
      dxz     :    -0.000324
      dyz     :    -0.001998
      dx2y2   :    -0.001008
      dxy     :    -0.000139
  2 C s       :     0.001601  s :     0.001601
      pz      :     0.002721  p :     0.006420
      px      :     0.002920
      py      :     0.000779
      dz2     :     0.000144  d :    -0.000178
      dxz     :    -0.000040
      dyz     :    -0.000022
      dx2y2   :    -0.000210
      dxy     :    -0.000051
  3 C s       :     0.016797  s :     0.016797
      pz      :     0.003429  p :     0.032738
      px      :     0.009193
      py      :     0.020116
      dz2     :    -0.000098  d :     0.000467
      dxz     :     0.000151
      dyz     :    -0.000074
      dx2y2   :     0.000561
      dxy     :    -0.000073
  4 H s       :     0.019714  s :     0.019714
  5 H s       :    -0.025935  s :    -0.025935
  6 H s       :    -0.025649  s :    -0.025649
  7 H s       :    -0.000226  s :    -0.000226
  8 H s       :    -0.000005  s :    -0.000005
  9 H s       :     0.000608  s :     0.000608
 10 H s       :     0.008473  s :     0.008473
 11 H s       :     0.000029  s :     0.000029
 12 H s       :     0.000182  s :     0.000182


                      *****************************
                      * MAYER POPULATION ANALYSIS *
                      *****************************

  NA   - Mulliken gross atomic population
  ZA   - Total nuclear charge
  QA   - Mulliken gross atomic charge
  VA   - Mayer's total valence
  BVA  - Mayer's bonded valence
  FA   - Mayer's free valence

  ATOM       NA         ZA         QA         VA         BVA        FA
  0 C      6.1023     6.0000    -0.1023     4.1955     4.1923     0.0032
  1 C      6.2329     6.0000    -0.2329     3.8902     2.9994     0.8907
  2 C      6.2417     6.0000    -0.2417     3.9553     3.9552     0.0000
  3 C      6.2332     6.0000    -0.2332     3.9362     3.9343     0.0019
  4 H      0.9262     1.0000     0.0738     0.9370     0.9365     0.0005
  5 H      0.8998     1.0000     0.1002     0.9560     0.9531     0.0028
  6 H      0.8989     1.0000     0.1011     0.9496     0.9468     0.0028
  7 H      0.9109     1.0000     0.0891     0.9614     0.9614     0.0000
  8 H      0.9116     1.0000     0.0884     0.9580     0.9580     0.0000
  9 H      0.9071     1.0000     0.0929     0.9556     0.9556     0.0000
 10 H      0.9119     1.0000     0.0881     0.9577     0.9574     0.0002
 11 H      0.9116     1.0000     0.0884     0.9587     0.9587     0.0000
 12 H      0.9119     1.0000     0.0881     0.9648     0.9648     0.0000

  Mayer bond orders larger than 0.100000
B(  0-C ,  1-C ) :   1.0840 B(  0-C ,  2-C ) :   1.0914 B(  0-C ,  3-C ) :   1.0746 
B(  0-C ,  4-H ) :   0.9118 B(  1-C ,  5-H ) :   0.9416 B(  1-C ,  6-H ) :   0.9405 
B(  2-C ,  7-H ) :   0.9569 B(  2-C ,  8-H ) :   0.9582 B(  2-C ,  9-H ) :   0.9595 
B(  3-C , 10-H ) :   0.9531 B(  3-C , 11-H ) :   0.9589 B(  3-C , 12-H ) :   0.9581 


-------
TIMINGS
-------

Total SCF time: 0 days 0 hours 1 min 48 sec 

Total time                  ....     108.391 sec
Sum of individual times     ....      85.737 sec  ( 79.1%)

Fock matrix formation       ....      73.012 sec  ( 67.4%)
  XC integration            ....      33.678 sec  ( 46.1% of F)
    Basis function eval.    ....       0.389 sec  (  1.2% of XC)
    Density eval.           ....       0.270 sec  (  0.8% of XC)
    XC-Functional eval.     ....       0.164 sec  (  0.5% of XC)
    XC-Potential eval.      ....       0.440 sec  (  1.3% of XC)
Diagonalization             ....       1.373 sec  (  1.3%)
Density matrix formation    ....       1.353 sec  (  1.2%)
Population analysis         ....       4.877 sec  (  4.5%)
Initial guess               ....       0.003 sec  (  0.0%)
Orbital Transformation      ....       0.000 sec  (  0.0%)
Orbital Orthonormalization  ....       0.001 sec  (  0.0%)
DIIS solution               ....       0.775 sec  (  0.7%)
Grid generation             ....       4.344 sec  (  4.0%)


-------------------------------------------------------------------------------
                          DFT DISPERSION CORRECTION                            
                                                                               
                              DFTD3 V3.1  Rev 1                                
                          USING Becke-Johnson damping                          
-------------------------------------------------------------------------------
The B3LYP functional is recognized
Active option DFTDOPT                   ...         4   

molecular C6(AA) [au] = 1132.644032 


            DFT-D V3
 parameters
 s6 scaling factor         :     1.0000 
 a1 scaling factor         :     0.3981 
 s8 scaling factor         :     1.9889 
 a2 scaling factor         :     4.4211 
 ad hoc parameters k1-k3   :    16.0000     1.3333    -4.0000 

 Edisp/kcal,au: -9.029204985491  -0.014388952511 
 E6   /kcal   :  -4.469177113 
 E8   /kcal   :  -4.560027872 
 % E8         :  50.503093902 

-------------------------   ----------------
Dispersion correction           -0.014388953
-------------------------   ----------------


-------------------------   --------------------
FINAL SINGLE POINT ENERGY      -157.545004547346
-------------------------   --------------------

                                *** OPTIMIZATION RUN DONE ***

                            ***************************************
                            *     ORCA property calculations      *
                            ***************************************

                                    ---------------------
                                    Active property flags
                                    ---------------------
   (+) Dipole Moment


------------------------------------------------------------------------------
                       ORCA ELECTRIC PROPERTIES CALCULATION
------------------------------------------------------------------------------

Dipole Moment Calculation                       ... on
Quadrupole Moment Calculation                   ... off
Polarizability Calculation                      ... off
GBWName                                         ... orca1.gbw
Electron density file                           ... orca1.scfp
The origin for moment calculation is the CENTER OF MASS  = (-0.080198, -0.162434  0.144418)

-------------
DIPOLE MOMENT
-------------
                                X             Y             Z
Electronic contribution:      1.12142      -0.14621       0.65546
Nuclear contribution   :     -1.19765       0.19921      -0.63652
                        -----------------------------------------
Total Dipole Moment    :     -0.07623       0.05300       0.01894
                        -----------------------------------------
Magnitude (a.u.)       :      0.09475
Magnitude (Debye)      :      0.24084



--------------------
Rotational spectrum 
--------------------
 
Rotational constants in cm-1:     0.274684     0.261674     0.154947 
Rotational constants in MHz :  8234.810675  7844.780650  4645.207192 

 Dipole components along the rotational axes: 
x,y,z [a.u.] :    -0.037394    -0.083825     0.023515 
x,y,z [Debye]:    -0.095047    -0.213067     0.059771 

 

Timings for individual modules:

Sum of individual times         ...     8435.764 sec (= 140.596 min)
GTO integral calculation        ...      214.283 sec (=   3.571 min)   2.5 %
SCF iterations                  ...     8005.595 sec (= 133.427 min)  94.9 %
SCF Gradient evaluation         ...      109.119 sec (=   1.819 min)   1.3 %
Geometry relaxation             ...      106.766 sec (=   1.779 min)   1.3 %
                             ****ORCA TERMINATED NORMALLY****
TOTAL RUN TIME: 0 days 2 hours 25 minutes 57 seconds 100 msec
