
                                 *****************
                                 * O   R   C   A *
                                 *****************

           --- An Ab Initio, DFT and Semiempirical electronic structure package ---

                  #######################################################
                  #                        -***-                        #
                  #          Department of theory and spectroscopy      #
                  #               Directorship: Frank Neese             #
                  #        Max Planck Institute fuer Kohlenforschung    #
                  #                Kaiser Wilhelm Platz 1               #
                  #                 D-45470 Muelheim/Ruhr               #
                  #                      Germany                        #
                  #                                                     #
                  #                  All rights reserved                #
                  #                        -***-                        #
                  #######################################################


                         Program Version 4.2.1 -  RELEASE  -


 With contributions from (in alphabetic order):
   Daniel Aravena         : Magnetic Suceptibility
   Michael Atanasov       : Ab Initio Ligand Field Theory (pilot matlab implementation)
   Alexander A. Auer      : GIAO ZORA, VPT2
   Ute Becker             : Parallelization
   Giovanni Bistoni       : ED, misc. LED, open-shell LED, HFLD
   Martin Brehm           : Molecular dynamics
   Dmytro Bykov           : SCF Hessian
   Vijay G. Chilkuri      : MRCI spin determinant printing, contributions to CSF-ICE
   Dipayan Datta          : RHF DLPNO-CCSD density
   Achintya Kumar Dutta   : EOM-CC, STEOM-CC
   Dmitry Ganyushin       : Spin-Orbit,Spin-Spin,Magnetic field MRCI
   Miquel Garcia          : C-PCM Hessian, Gaussian charge scheme
   Yang Guo               : DLPNO-NEVPT2, CIM, IAO-localization
   Andreas Hansen         : Spin unrestricted coupled pair/coupled cluster methods
   Benjamin Helmich-Paris : CASSCF linear response (MC-RPA)
   Lee Huntington         : MR-EOM, pCC
   Robert Izsak           : Overlap fitted RIJCOSX, COSX-SCS-MP3, EOM
   Christian Kollmar      : KDIIS, OOCD, Brueckner-CCSD(T), CCSD density
   Simone Kossmann        : Meta GGA functionals, TD-DFT gradient, OOMP2, MP2 Hessian
   Martin Krupicka        : AUTO-CI
   Lucas Lang             : DCDCAS
   Dagmar Lenk            : GEPOL surface, SMD
   Dimitrios Liakos       : Extrapolation schemes; Compound Job, initial MDCI parallelization
   Dimitrios Manganas     : Further ROCIS development; embedding schemes
   Dimitrios Pantazis     : SARC Basis sets
   Taras Petrenko         : DFT Hessian,TD-DFT gradient, ASA, ECA, R-Raman, ABS, FL, XAS/XES, NRVS
   Peter Pinski           : DLPNO-MP2, DLPNO-MP2 Gradient
   Christoph Reimann      : Effective Core Potentials
   Marius Retegan         : Local ZFS, SOC
   Christoph Riplinger    : Optimizer, TS searches, QM/MM, DLPNO-CCSD(T), (RO)-DLPNO pert. Triples
   Tobias Risthaus        : Range-separated hybrids, TD-DFT gradient, RPA, STAB
   Michael Roemelt        : Original ROCIS implementation
   Masaaki Saitow         : Open-shell DLPNO-CCSD energy and density
   Barbara Sandhoefer     : DKH picture change effects
   Avijit Sen             : IP-ROCIS
   Kantharuban Sivalingam : CASSCF convergence, NEVPT2, FIC-MRCI
   Bernardo de Souza      : ESD, SOC TD-DFT
   Georgi Stoychev        : AutoAux, RI-MP2 NMR
   Willem Van den Heuvel  : Paramagnetic NMR
   Boris Wezisla          : Elementary symmetry handling
   Frank Wennmohs         : Technical directorship


 We gratefully acknowledge several colleagues who have allowed us to
 interface, adapt or use parts of their codes:
   Stefan Grimme, W. Hujo, H. Kruse,             : VdW corrections, initial TS optimization,
                  C. Bannwarth                     DFT functionals, gCP, sTDA/sTD-DF
   Ed Valeev, F. Pavosevic, A. Kumar             : LibInt (2-el integral package), F12 methods
   Garnet Chan, S. Sharma, J. Yang, R. Olivares  : DMRG
   Ulf Ekstrom                                   : XCFun DFT Library
   Mihaly Kallay                                 : mrcc  (arbitrary order and MRCC methods)
   Andreas Klamt, Michael Diedenhofen            : otool_cosmo (COSMO solvation model)
   Jiri Pittner, Ondrej Demel                    : Mk-CCSD
   Frank Weinhold                                : gennbo (NPA and NBO analysis)
   Christopher J. Cramer and Donald G. Truhlar   : smd solvation model
   Lars Goerigk                                  : TD-DFT with DH, B97 family of functionals
   V. Asgeirsson, H. Jonsson                     : NEB implementation
   FAccTs GmbH                                   : IRC, NEB, NEB-TS, Multilevel, MM, QM/MM, CI optimization
   S Lehtola, MJT Oliveira, MAL Marques          : LibXC Library


 Your calculation uses the libint2 library for the computation of 2-el integrals
 For citations please refer to: http://libint.valeyev.net

 Your ORCA version has been built with support for libXC version: 4.2.3
 For citations please refer to: https://tddft.org/programs/libxc/

 This ORCA versions uses:
   CBLAS   interface :  Fast vector & matrix operations
   LAPACKE interface :  Fast linear algebra routines
   SCALAPACK package :  Parallel linear algebra routines


Your calculation utilizes the atom-pairwise dispersion correction
with the Becke-Johnson damping scheme (D3BJ)
Cite in your paper:
S.Grimme, S.Ehrlich, L.Goerigk, J Comput Chem, (2011), 32, 1456–1465 
S.Grimme, J.Antony, S.Ehrlich and H.Krieg, J.Chem.Phys., 132, (2010), 154104 
   

----- Orbital basis set information -----
Your calculation utilizes the basis: def2-SV(P)
   F. Weigend and R. Ahlrichs, Phys. Chem. Chem. Phys. 7, 3297 (2005).

----- AuxJ basis set information -----
Your calculation utilizes the auxiliary basis: def2/J
   F. Weigend, Phys. Chem. Chem. Phys. 8, 1057 (2006).

================================================================================
                                        WARNINGS
                       Please study these warnings very carefully!
================================================================================


WARNING: Geometry Optimization
  ===> : Switching off AutoStart
         For restart on a previous wavefunction, please use MOREAD

INFO   : the flag for use of LIBINT has been found!

================================================================================
                                       INPUT FILE
================================================================================
NAME = orca9.inp
|  1> ! UKS B3LYP def2-SV(P) def2/J D3BJ Opt
|  2> %scf Convergence VeryTight
|  3> SmearTemp 2000
|  4> maxiter 500
|  5> end
|  6> *xyz 0 2
|  7> C 0.014335 0.133011 0.331503
|  8> C -0.896459 1.134156 -0.320904
|  9> C 1.395599 0.109987 -0.247402
| 10> C -0.539714 -1.273797 0.304892
| 11> H 0.086116 0.436608 1.407166
| 12> H -0.481606 2.138623 -0.100059
| 13> H -1.08879 0.948749 -1.384881
| 14> H 1.565125 0.832498 -1.056706
| 15> H 1.673083 -0.90264 -0.636779
| 16> H 2.162445 0.326202 0.539492
| 17> H -1.345636 -1.412934 -0.433157
| 18> H -0.944143 -1.558993 1.309056
| 19> H 0.265764 -2.009744 0.056049
| 20> *
| 21> 
| 22>                          ****END OF INPUT****
================================================================================

                       *****************************
                       * Geometry Optimization Run *
                       *****************************

Geometry optimization settings:
Update method            Update   .... BFGS
Choice of coordinates    CoordSys .... Z-matrix Internals
Initial Hessian          InHess   .... Almoef's Model

Convergence Tolerances:
Energy Change            TolE     ....  5.0000e-06 Eh
Max. Gradient            TolMAXG  ....  3.0000e-04 Eh/bohr
RMS Gradient             TolRMSG  ....  1.0000e-04 Eh/bohr
Max. Displacement        TolMAXD  ....  4.0000e-03 bohr
RMS Displacement         TolRMSD  ....  2.0000e-03 bohr
Strict Convergence                ....  False
------------------------------------------------------------------------------
                        ORCA OPTIMIZATION COORDINATE SETUP
------------------------------------------------------------------------------

The optimization will be done in new redundant internal coordinates
Making redundant internal coordinates   ...  (new redundants) done
Evaluating the initial hessian          ...  (Almloef) done
Evaluating the coordinates              ...  done
Calculating the B-matrix                .... done
Calculating the G-matrix                .... done
Diagonalizing the G-matrix              .... done
The first mode is                       ....   24
The number of degrees of freedom        ....   33

    -----------------------------------------------------------------
                    Redundant Internal Coordinates


    -----------------------------------------------------------------
         Definition                    Initial Value    Approx d2E/dq
    -----------------------------------------------------------------
      1. B(C   1,C   0)                  1.5025         0.413305   
      2. B(C   2,C   0)                  1.4978         0.420409   
      3. B(C   3,C   0)                  1.5122         0.398801   
      4. B(H   4,C   0)                  1.1200         0.322536   
      5. B(H   5,C   1)                  1.1090         0.335851   
      6. B(H   6,C   1)                  1.0970         0.350955   
      7. B(H   7,C   2)                  1.0981         0.349595   
      8. B(H   8,C   2)                  1.1198         0.322721   
      9. B(H   9,C   2)                  1.1198         0.322732   
     10. B(H  10,C   3)                  1.1016         0.345041   
     11. B(H  11,C   3)                  1.1195         0.323134   
     12. B(H  12,C   3)                  1.1191         0.323617   
     13. A(C   1,C   0,H   4)          105.9776         0.323835   
     14. A(C   2,C   0,H   4)          108.4368         0.324742   
     15. A(C   1,C   0,C   2)          113.6675         0.377305   
     16. A(C   1,C   0,C   3)          112.9633         0.373882   
     17. A(C   2,C   0,C   3)          108.4674         0.374983   
     18. A(C   3,C   0,H   4)          107.0113         0.321944   
     19. A(H   5,C   1,H   6)          114.3191         0.286526   
     20. A(C   0,C   1,H   6)          114.5072         0.328366   
     21. A(C   0,C   1,H   5)          106.8754         0.325995   
     22. A(H   7,C   2,H   9)          106.5673         0.284581   
     23. A(C   0,C   2,H   9)          110.9123         0.324775   
     24. A(H   7,C   2,H   8)          107.4858         0.284579   
     25. A(C   0,C   2,H   8)          112.1350         0.324773   
     26. A(H   8,C   2,H   9)          104.4328         0.281072   
     27. A(C   0,C   2,H   7)          114.6524         0.329080   
     28. A(H  11,C   3,H  12)          106.9746         0.281247   
     29. A(H  10,C   3,H  12)          107.1292         0.284122   
     30. A(C   0,C   3,H  12)          110.6097         0.322120   
     31. A(H  10,C   3,H  11)          107.7269         0.284056   
     32. A(C   0,C   3,H  11)          110.7062         0.322041   
     33. A(C   0,C   3,H  10)          113.4109         0.325527   
     34. D(H   6,C   1,C   0,C   3)    -61.4530         0.012644   
     35. D(H   6,C   1,C   0,H   4)   -178.3140         0.012644   
     36. D(H   6,C   1,C   0,C   2)     62.6951         0.012644   
     37. D(H   5,C   1,C   0,H   4)     54.0059         0.012644   
     38. D(H   5,C   1,C   0,C   2)    -64.9851         0.012644   
     39. D(H   5,C   1,C   0,C   3)    170.8669         0.012644   
     40. D(H   7,C   2,C   0,C   1)      0.8543         0.013983   
     41. D(H   9,C   2,C   0,C   1)    121.5998         0.013983   
     42. D(H   8,C   2,C   0,H   4)    120.3505         0.013983   
     43. D(H   8,C   2,C   0,C   1)   -122.0741         0.013983   
     44. D(H   7,C   2,C   0,H   4)   -116.7211         0.013983   
     45. D(H   7,C   2,C   0,C   3)    127.4004         0.013983   
     46. D(H   9,C   2,C   0,C   3)   -111.8541         0.013983   
     47. D(H   9,C   2,C   0,H   4)      4.0244         0.013983   
     48. D(H   8,C   2,C   0,C   3)      4.4720         0.013983   
     49. D(H  12,C   3,C   0,H   4)   -105.7345         0.012621   
     50. D(H  12,C   3,C   0,C   1)    138.0169         0.012621   
     51. D(H  11,C   3,C   0,H   4)     12.6639         0.012621   
     52. D(H  11,C   3,C   0,C   2)    129.4627         0.012621   
     53. D(H  11,C   3,C   0,C   1)   -103.5847         0.012621   
     54. D(H  10,C   3,C   0,H   4)    133.8864         0.012621   
     55. D(H  12,C   3,C   0,C   2)     11.0644         0.012621   
     56. D(H  10,C   3,C   0,C   2)   -109.3147         0.012621   
     57. D(H  10,C   3,C   0,C   1)     17.6379         0.012621   
    -----------------------------------------------------------------

Number of atoms                         .... 13
Number of degrees of freedom            .... 57

Time needed for optimization step       :     4.05 sec

         *************************************************************
         *                GEOMETRY OPTIMIZATION CYCLE   1            *
         *************************************************************
---------------------------------
CARTESIAN COORDINATES (ANGSTROEM)
---------------------------------
  C      0.014335    0.133011    0.331503
  C     -0.896459    1.134156   -0.320904
  C      1.395599    0.109987   -0.247402
  C     -0.539714   -1.273797    0.304892
  H      0.086116    0.436608    1.407166
  H     -0.481606    2.138623   -0.100059
  H     -1.088790    0.948749   -1.384881
  H      1.565125    0.832498   -1.056706
  H      1.673083   -0.902640   -0.636779
  H      2.162445    0.326202    0.539492
  H     -1.345636   -1.412934   -0.433157
  H     -0.944143   -1.558993    1.309056
  H      0.265764   -2.009744    0.056049

----------------------------
CARTESIAN COORDINATES (A.U.)
----------------------------
  NO LB      ZA    FRAG     MASS         X           Y           Z
   0 C     6.0000    0    12.011    0.027089    0.251354    0.626450
   1 C     6.0000    0    12.011   -1.694062    2.143244   -0.606421
   2 C     6.0000    0    12.011    2.637300    0.207845   -0.467522
   3 C     6.0000    0    12.011   -1.019912   -2.407127    0.576162
   4 H     1.0000    0     1.008    0.162736    0.825070    2.659158
   5 H     1.0000    0     1.008   -0.910103    4.041412   -0.189084
   6 H     1.0000    0     1.008   -2.057515    1.792876   -2.617046
   7 H     1.0000    0     1.008    2.957658    1.573193   -1.996885
   8 H     1.0000    0     1.008    3.161669   -1.705742   -1.203338
   9 H     1.0000    0     1.008    4.086429    0.616432    1.019492
  10 H     1.0000    0     1.008   -2.542884   -2.670058   -0.818548
  11 H     1.0000    0     1.008   -1.784172   -2.946070    2.473757
  12 H     1.0000    0     1.008    0.502221   -3.797866    0.105917

--------------------------------
INTERNAL COORDINATES (ANGSTROEM)
--------------------------------
 C      0   0   0     0.000000000000     0.00000000     0.00000000
 C      1   0   0     1.502488574036     0.00000000     0.00000000
 C      1   2   0     1.497848904695   113.66752426     0.00000000
 C      1   2   3     1.512212679680   112.96329058   235.85194277
 H      1   2   3     1.119988633844   105.97764547   118.99094967
 H      2   1   3     1.108976771498   106.87539894   295.01492160
 H      2   1   3     1.097002290672   114.50723620    62.69506507
 H      3   1   2     1.098059276275   114.65238516     0.85425963
 H      3   1   2     1.119832692644   112.13501385   237.92592800
 H      3   1   2     1.119823147277   110.91228231   121.59977593
 H      4   1   2     1.101628658512   113.41094835    17.63786487
 H      4   1   2     1.119484217554   110.70617802   256.41529983
 H      4   1   2     1.119078028532   110.60968734   138.01694353

---------------------------
INTERNAL COORDINATES (A.U.)
---------------------------
 C      0   0   0     0.000000000000     0.00000000     0.00000000
 C      1   0   0     2.839291924275     0.00000000     0.00000000
 C      1   2   0     2.830524219868   113.66752426     0.00000000
 C      1   2   3     2.857667820839   112.96329058   235.85194277
 H      1   2   3     2.116471791069   105.97764547   118.99094967
 H      2   1   3     2.095662387012   106.87539894   295.01492160
 H      2   1   3     2.073033897654   114.50723620    62.69506507
 H      3   1   2     2.075031310971   114.65238516     0.85425963
 H      3   1   2     2.116177104909   112.13501385   237.92592800
 H      3   1   2     2.116159066779   110.91228231   121.59977593
 H      4   1   2     2.081776465866   113.41094835    17.63786487
 H      4   1   2     2.115518582425   110.70617802   256.41529983
 H      4   1   2     2.114750996413   110.60968734   138.01694353

---------------------
BASIS SET INFORMATION
---------------------
There are 2 groups of distinct atoms

 Group   1 Type C   : 7s4p1d contracted to 3s2p1d pattern {511/31/1}
 Group   2 Type H   : 4s contracted to 2s pattern {31}

Atom   0C    basis set group =>   1
Atom   1C    basis set group =>   1
Atom   2C    basis set group =>   1
Atom   3C    basis set group =>   1
Atom   4H    basis set group =>   2
Atom   5H    basis set group =>   2
Atom   6H    basis set group =>   2
Atom   7H    basis set group =>   2
Atom   8H    basis set group =>   2
Atom   9H    basis set group =>   2
Atom  10H    basis set group =>   2
Atom  11H    basis set group =>   2
Atom  12H    basis set group =>   2
---------------------------------
AUXILIARY/J BASIS SET INFORMATION
---------------------------------
There are 2 groups of distinct atoms

 Group   1 Type C   : 12s5p4d2f1g contracted to 6s4p3d1f1g pattern {711111/2111/211/2/1}
 Group   2 Type H   : 5s2p1d contracted to 3s1p1d pattern {311/2/1}

Atom   0C    basis set group =>   1
Atom   1C    basis set group =>   1
Atom   2C    basis set group =>   1
Atom   3C    basis set group =>   1
Atom   4H    basis set group =>   2
Atom   5H    basis set group =>   2
Atom   6H    basis set group =>   2
Atom   7H    basis set group =>   2
Atom   8H    basis set group =>   2
Atom   9H    basis set group =>   2
Atom  10H    basis set group =>   2
Atom  11H    basis set group =>   2
Atom  12H    basis set group =>   2
------------------------------------------------------------------------------
                           ORCA GTO INTEGRAL CALCULATION
------------------------------------------------------------------------------

                         BASIS SET STATISTICS AND STARTUP INFO

 # of primitive gaussian shells          ...   84
 # of primitive gaussian functions       ...  132
 # of contracted shells                  ...   42
 # of contracted basis functions         ...   74
 Highest angular momentum                ...    2
 Maximum contraction depth               ...    5
 Integral package used                   ... LIBINT
 Integral threshhold            Thresh   ...  1.000e-12
 Primitive cut-off              TCut     ...  1.000e-14


------------------------------ INTEGRAL EVALUATION ----------------------------


 * One electron integrals 
 Pre-screening matrix                    ... done
 Shell pair data                         ... done (   0.000 sec)

-------------------------------------------------------------------------------
                                 ORCA SCF
-------------------------------------------------------------------------------

------------
SCF SETTINGS
------------
Hamiltonian:
 Density Functional     Method          .... DFT(GTOs)
 Exchange Functional    Exchange        .... B88
   X-Alpha parameter    XAlpha          ....  0.666667
   Becke's b parameter  XBeta           ....  0.004200
 Correlation Functional Correlation     .... LYP
 LDA part of GGA corr.  LDAOpt          .... VWN-5
 Gradients option       PostSCFGGA      .... off
 Hybrid DFT is turned on
   Fraction HF Exchange ScalHFX         ....  0.200000
   Scaling of DF-GGA-X  ScalDFX         ....  0.720000
   Scaling of DF-GGA-C  ScalDFC         ....  0.810000
   Scaling of DF-LDA-C  ScalLDAC        ....  1.000000
   Perturbative correction              ....  0.000000
   Density functional embedding theory  .... OFF
   NL short-range parameter             ....  4.800000


General Settings:
 Integral files         IntName         .... orca9
 Hartree-Fock type      HFTyp           .... UHF
 Total Charge           Charge          ....    0
 Multiplicity           Mult            ....    2
 Number of Electrons    NEL             ....   33
 Basis Dimension        Dim             ....   74
 Nuclear Repulsion      ENuc            ....    127.0875942329 Eh

Convergence Acceleration:
 DIIS                   CNVDIIS         .... on
   Start iteration      DIISMaxIt       ....    12
   Startup error        DIISStart       ....  0.200000
   # of expansion vecs  DIISMaxEq       ....     5
   Bias factor          DIISBfac        ....   1.050
   Max. coefficient     DIISMaxC        ....  10.000
 Newton-Raphson         CNVNR           .... off
 SOSCF                  CNVSOSCF        .... off
 Level Shifting         CNVShift        .... on
   Level shift para.    LevelShift      ....    0.2500
   Turn off err/grad.   ShiftErr        ....    0.0010
 Zerner damping         CNVZerner       .... off
 Static damping         CNVDamp         .... on
   Fraction old density DampFac         ....    0.7000
   Max. Damping (<1)    DampMax         ....    0.9800
   Min. Damping (>=0)   DampMin         ....    0.0000
   Turn off err/grad.   DampErr         ....    0.1000
 Fernandez-Rico         CNVRico         .... off

SCF Procedure:
 Maximum # iterations   MaxIter         ....   500
 SCF integral mode      SCFMode         .... Direct
   Integral package                     .... LIBINT
 Reset frequency        DirectResetFreq ....    20
 Integral Threshold     Thresh          ....  1.000e-12 Eh
 Primitive CutOff       TCut            ....  1.000e-14 Eh

Convergence Tolerance:
 Convergence Check Mode ConvCheckMode   .... Total+1el-Energy
 Convergence forced     ConvForced      .... 0
 Energy Change          TolE            ....  1.000e-09 Eh
 1-El. energy change                    ....  1.000e-06 Eh
 DIIS Error             TolErr          ....  1.000e-08


Diagonalization of the overlap matrix:
Smallest eigenvalue                        ... 1.864e-03
Time for diagonalization                   ...    0.001 sec
Threshold for overlap eigenvalues          ... 1.000e-08
Number of eigenvalues below threshold      ... 0
Time for construction of square roots      ...    4.390 sec
Total time needed                          ...    4.392 sec

-------------------
DFT GRID GENERATION
-------------------

General Integration Accuracy     IntAcc      ...  4.340
Radial Grid Type                 RadialGrid  ... Gauss-Chebyshev
Angular Grid (max. acc.)         AngularGrid ... Lebedev-110
Angular grid pruning method      GridPruning ... 3 (G Style)
Weight generation scheme         WeightScheme... Becke
Basis function cutoff            BFCut       ...    1.0000e-12
Integration weight cutoff        WCut        ...    1.0000e-14
Grids for H and He will be reduced by one unit

# of grid points (after initial pruning)     ...  13770 (   0.0 sec)
# of grid points (after weights+screening)   ...  12876 (   0.0 sec)
nearest neighbour list constructed           ...    0.0 sec
Grid point re-assignment to atoms done       ...    0.0 sec
Grid point division into batches done        ...    0.0 sec
Reduced shell lists constructed in    0.1 sec

Total number of grid points                  ...    12876
Total number of batches                      ...      208
Average number of points per batch           ...       61
Average number of grid points per atom       ...      990
Average number of shells per batch           ...    37.43 (89.11%)
Average number of basis functions per batch  ...    66.76 (90.21%)
Average number of large shells per batch     ...    33.00 (88.19%)
Average number of large basis fcns per batch ...    58.41 (87.50%)
Maximum spatial batch extension              ...  20.90, 20.05, 20.25 au
Average spatial batch extension              ...   4.28,  3.98,  3.82 au

Time for grid setup =    1.241 sec

------------------------------
INITIAL GUESS: MODEL POTENTIAL
------------------------------
Loading Hartree-Fock densities                     ... done
Calculating cut-offs                               ... done
Setting up the integral package                    ... done
Initializing the effective Hamiltonian             ... done
Starting the Coulomb interaction                   ... done (   0.0 sec)
Reading the grid                                   ... done
Mapping shells                                     ... done
Starting the XC term evaluation                    ... done (   0.1 sec)
  promolecular density results
     # of electrons  =     32.996446962
     EX              =    -23.188616108
     EC              =     -1.032192678
     EX+EC           =    -24.220808786
Transforming the Hamiltonian                       ... done (   1.5 sec)
Diagonalizing the Hamiltonian                      ... done (   0.0 sec)
Back transforming the eigenvectors                 ... done (   0.0 sec)
Now organizing SCF variables                       ... done
                      ------------------
                      INITIAL GUESS DONE (   3.0 sec)
                      ------------------
--------------
SCF ITERATIONS
--------------
ITER       Energy         Delta-E        Max-DP      RMS-DP      [F,P]     Damp
               ***  Starting incremental Fock matrix formation  ***
  0   -157.3567117559   0.000000000000 0.04245907  0.00210270  0.1741904 0.7000
  1   -157.4256125073  -0.068900751442 0.02600581  0.00151377  0.0894012 0.7000
                               ***Turning on DIIS***
  2   -157.4532636402  -0.027651132901 0.03744144  0.00251340  0.0323729 0.0000
  3   -157.4912870547  -0.038023414475 0.01783045  0.00106938  0.0495081 0.0000
  4   -157.5035546901  -0.012267635426 0.00612197  0.00032644  0.0091273 0.0000
  5   -157.5041713379  -0.000616647800 0.00182674  0.00011419  0.0020629 0.0000
  6   -157.5042228412  -0.000051503249 0.00171165  0.00007643  0.0006088 0.0000
  7   -157.5042335858  -0.000010744594 0.00038293  0.00001374  0.0001677 0.0000
  8   -157.5042343975  -0.000000811702 0.00013348  0.00000466  0.0001110 0.0000
  9   -157.5042345067  -0.000000109223 0.00006236  0.00000200  0.0000457 0.0000
 10   -157.5042345304  -0.000000023685 0.00002073  0.00000079  0.0000098 0.0000
 11   -157.5042345346  -0.000000004228 0.00001091  0.00000045  0.0000031 0.0000
 12   -157.5042345357  -0.000000001105 0.00000320  0.00000011  0.0000019 0.0000
 13   -157.5042345359  -0.000000000130 0.00000370  0.00000014  0.0000009 0.0000
 14   -157.5042345360  -0.000000000092 0.00000131  0.00000005  0.0000004 0.0000
 15   -157.5042345360  -0.000000000014 0.00000071  0.00000003  0.0000002 0.0000
 16   -157.5042345360   0.000000000006 0.00000014  0.00000001  0.0000001 0.0000
                 **** Energy Check signals convergence ****

 Fermi smearing  (ALPHA): E(HOMO(Eh)) = -0.314912 MUE = -0.085709 gap=   7.683 eV
 Fermi smearing   (BETA): E(HOMO(Eh)) = -0.312037 MUE = -0.186223 gap=   6.816 eV

N_FOD(alpha) =  0.000000
 N_FOD(beta) =  0.000000
       N_FOD =  0.000000

               *****************************************************
               *                     SUCCESS                       *
               *           SCF CONVERGED AFTER  17 CYCLES          *
               *****************************************************

Setting up the final grid:

General Integration Accuracy     IntAcc      ...  4.670
Radial Grid Type                 RadialGrid  ... Gauss-Chebyshev
Angular Grid (max. acc.)         AngularGrid ... Lebedev-302
Angular grid pruning method      GridPruning ... 3 (G Style)
Weight generation scheme         WeightScheme... Becke
Basis function cutoff            BFCut       ...    1.0000e-12
Integration weight cutoff        WCut        ...    1.0000e-14
Grids for H and He will be reduced by one unit

# of grid points (after initial pruning)     ...  55394 (   0.0 sec)
# of grid points (after weights+screening)   ...  51182 (   0.1 sec)
nearest neighbour list constructed           ...    0.0 sec
Grid point re-assignment to atoms done       ...    0.0 sec
Grid point division into batches done        ...    0.1 sec
Reduced shell lists constructed in    0.3 sec

Total number of grid points                  ...    51182
Total number of batches                      ...      807
Average number of points per batch           ...       63
Average number of grid points per atom       ...     3937
Average number of shells per batch           ...    35.00 (83.33%)
Average number of basis functions per batch  ...    62.20 (84.05%)
Average number of large shells per batch     ...    30.09 (85.96%)
Average number of large basis fcns per batch ...    52.97 (85.17%)
Maximum spatial batch extension              ...  18.63, 18.89, 20.51 au
Average spatial batch extension              ...   2.66,  2.65,  2.58 au

Final grid set up in    4.7 sec
Final integration                            ... done (  16.9 sec)
Change in XC energy                          ...     0.000057567
Integrated number of electrons               ...    32.999994632
Previous integrated no of electrons          ...    33.000727374

----------------
TOTAL SCF ENERGY
----------------

Total Energy       :         -157.50417697 Eh           -4285.90655 eV

Components:
Nuclear Repulsion  :          127.08759423 Eh            3458.22925 eV
Electronic Energy  :         -284.59177120 Eh           -7744.13580 eV
One Electron Energy:         -461.67416341 Eh          -12562.79267 eV
Two Electron Energy:          177.08239220 Eh            4818.65687 eV

Virial components:
Potential Energy   :         -313.41921534 Eh           -8528.57043 eV
Kinetic Energy     :          155.91503838 Eh            4242.66389 eV
Virial Ratio       :            2.01019234


DFT components:
N(Alpha)           :       17.000001756817 electrons
N(Beta)            :       15.999992875406 electrons
N(Total)           :       32.999994632224 electrons
E(X)               :      -18.890542656514 Eh       
E(C)               :       -1.221196246166 Eh       
E(XC)              :      -20.111738902680 Eh       
DFET-embed. en.    :        0.000000000000 Eh       

---------------
SCF CONVERGENCE
---------------

  Last Energy change         ...   -1.5206e-11  Tolerance :   1.0000e-09
  Last MAX-Density change    ...    1.1493e-07  Tolerance :   1.0000e-08
  Last RMS-Density change    ...    5.3234e-09  Tolerance :   1.0000e-09
  Last DIIS Error            ...    2.2773e-08  Tolerance :   1.0000e-08

             **** THE GBW FILE WAS UPDATED (orca9.gbw) ****
             **** DENSITY FILE WAS UPDATED (orca9.scfp) ****
             **** ENERGY FILE WAS UPDATED (orca9.en.tmp) ****
             **** THE GBW FILE WAS UPDATED (orca9.gbw) ****
             **** DENSITY FILE WAS UPDATED (orca9.scfp) ****
----------------
ORBITAL ENERGIES
----------------
                 SPIN UP ORBITALS
  NO   OCC          E(Eh)            E(eV) 
   0   1.0000     -10.187356      -277.2120 
   1   1.0000     -10.181567      -277.0545 
   2   1.0000     -10.171164      -276.7714 
   3   1.0000     -10.164083      -276.5788 
   4   1.0000      -0.804229       -21.8842 
   5   1.0000      -0.670269       -18.2389 
   6   1.0000      -0.668808       -18.1992 
   7   1.0000      -0.549161       -14.9434 
   8   1.0000      -0.462200       -12.5771 
   9   1.0000      -0.436757       -11.8848 
  10   1.0000      -0.416473       -11.3328 
  11   1.0000      -0.393574       -10.7097 
  12   1.0000      -0.385123       -10.4797 
  13   1.0000      -0.339096        -9.2273 
  14   1.0000      -0.326890        -8.8951 
  15   1.0000      -0.314912        -8.5692 
  16   1.0000      -0.226889        -6.1740 
  17   0.0000       0.055470         1.5094 
  18   0.0000       0.082404         2.2423 
  19   0.0000       0.103024         2.8034 
  20   0.0000       0.108900         2.9633 
  21   0.0000       0.117419         3.1951 
  22   0.0000       0.134169         3.6509 
  23   0.0000       0.150262         4.0888 
  24   0.0000       0.168857         4.5948 
  25   0.0000       0.172213         4.6862 
  26   0.0000       0.233467         6.3529 
  27   0.0000       0.280528         7.6335 
  28   0.0000       0.292007         7.9459 
  29   0.0000       0.403745        10.9865 
  30   0.0000       0.432590        11.7714 
  31   0.0000       0.444962        12.1080 
  32   0.0000       0.482271        13.1233 
  33   0.0000       0.514080        13.9888 
  34   0.0000       0.531550        14.4642 
  35   0.0000       0.563660        15.3380 
  36   0.0000       0.584071        15.8934 
  37   0.0000       0.612277        16.6609 
  38   0.0000       0.642001        17.4697 
  39   0.0000       0.664063        18.0701 
  40   0.0000       0.670635        18.2489 
  41   0.0000       0.681798        18.5527 
  42   0.0000       0.684644        18.6301 
  43   0.0000       0.697777        18.9875 
  44   0.0000       0.715304        19.4644 
  45   0.0000       0.719296        19.5730 
  46   0.0000       0.726758        19.7761 
  47   0.0000       0.744599        20.2616 
  48   0.0000       0.748182        20.3591 
  49   0.0000       0.768233        20.9047 
  50   0.0000       0.788358        21.4523 
  51   0.0000       0.859606        23.3911 
  52   0.0000       0.970708        26.4143 
  53   0.0000       1.081277        29.4230 
  54   0.0000       1.378009        37.4975 
  55   0.0000       1.423921        38.7469 
  56   0.0000       1.751259        47.6542 
  57   0.0000       1.771055        48.1929 
  58   0.0000       1.809790        49.2469 
  59   0.0000       1.855301        50.4853 
  60   0.0000       1.909432        51.9583 
  61   0.0000       1.935846        52.6771 
  62   0.0000       1.965237        53.4768 
  63   0.0000       1.996028        54.3147 
  64   0.0000       2.061341        56.0919 
  65   0.0000       2.092166        56.9307 
  66   0.0000       2.154618        58.6301 
  67   0.0000       2.186096        59.4867 
  68   0.0000       2.208881        60.1067 
  69   0.0000       2.412029        65.6346 
  70   0.0000       2.446409        66.5702 
  71   0.0000       2.486841        67.6704 
  72   0.0000       2.704423        73.5911 
  73   0.0000       2.717941        73.9589 

                 SPIN DOWN ORBITALS
  NO   OCC          E(Eh)            E(eV) 
   0   1.0000     -10.182025      -277.0670 
   1   1.0000     -10.172121      -276.7975 
   2   1.0000     -10.169698      -276.7316 
   3   1.0000     -10.163817      -276.5715 
   4   1.0000      -0.797460       -21.7000 
   5   1.0000      -0.668408       -18.1883 
   6   1.0000      -0.647022       -17.6064 
   7   1.0000      -0.541957       -14.7474 
   8   1.0000      -0.458267       -12.4701 
   9   1.0000      -0.433064       -11.7843 
  10   1.0000      -0.407689       -11.0938 
  11   1.0000      -0.387592       -10.5469 
  12   1.0000      -0.381594       -10.3837 
  13   1.0000      -0.334308        -9.0970 
  14   1.0000      -0.323322        -8.7980 
  15   1.0000      -0.312037        -8.4910 
  16   0.0000      -0.061550        -1.6749 
  17   0.0000       0.056839         1.5467 
  18   0.0000       0.083225         2.2647 
  19   0.0000       0.106702         2.9035 
  20   0.0000       0.110954         3.0192 
  21   0.0000       0.121690         3.3114 
  22   0.0000       0.139329         3.7913 
  23   0.0000       0.151954         4.1349 
  24   0.0000       0.170855         4.6492 
  25   0.0000       0.175718         4.7815 
  26   0.0000       0.236135         6.4256 
  27   0.0000       0.282127         7.6771 
  28   0.0000       0.300815         8.1856 
  29   0.0000       0.405629        11.0377 
  30   0.0000       0.446409        12.1474 
  31   0.0000       0.449873        12.2417 
  32   0.0000       0.502015        13.6605 
  33   0.0000       0.521312        14.1856 
  34   0.0000       0.542526        14.7629 
  35   0.0000       0.587546        15.9879 
  36   0.0000       0.595748        16.2111 
  37   0.0000       0.621812        16.9204 
  38   0.0000       0.649608        17.6767 
  39   0.0000       0.670310        18.2401 
  40   0.0000       0.673293        18.3212 
  41   0.0000       0.685924        18.6649 
  42   0.0000       0.688688        18.7401 
  43   0.0000       0.702688        19.1211 
  44   0.0000       0.719092        19.5675 
  45   0.0000       0.726844        19.7784 
  46   0.0000       0.731423        19.9030 
  47   0.0000       0.747033        20.3278 
  48   0.0000       0.751161        20.4401 
  49   0.0000       0.771290        20.9879 
  50   0.0000       0.795023        21.6337 
  51   0.0000       0.865936        23.5633 
  52   0.0000       0.973064        26.4784 
  53   0.0000       1.083778        29.4911 
  54   0.0000       1.387277        37.7497 
  55   0.0000       1.432246        38.9734 
  56   0.0000       1.771298        48.1995 
  57   0.0000       1.799477        48.9662 
  58   0.0000       1.817590        49.4591 
  59   0.0000       1.870557        50.9004 
  60   0.0000       1.937777        52.7296 
  61   0.0000       1.961363        53.3714 
  62   0.0000       1.968596        53.5682 
  63   0.0000       2.020642        54.9845 
  64   0.0000       2.080754        56.6202 
  65   0.0000       2.098276        57.0970 
  66   0.0000       2.157140        58.6988 
  67   0.0000       2.194758        59.7224 
  68   0.0000       2.219691        60.4009 
  69   0.0000       2.426004        66.0149 
  70   0.0000       2.453842        66.7724 
  71   0.0000       2.490238        67.7628 
  72   0.0000       2.714695        73.8706 
  73   0.0000       2.721806        74.0641 

                    ********************************
                    * MULLIKEN POPULATION ANALYSIS *
                    ********************************

------------------------------------------
FOD BASED MULLIKEN REDUCED ORBITAL CHARGES
------------------------------------------
  0 C s       :    -0.000000  s :    -0.000000
      pz      :     0.000000  p :     0.000000
      px      :     0.000000
      py      :     0.000000
      dz2     :     0.000000  d :     0.000000
      dxz     :     0.000000
      dyz     :     0.000000
      dx2y2   :     0.000000
      dxy     :     0.000000
  1 C s       :     0.000000  s :     0.000000
      pz      :     0.000000  p :     0.000000
      px      :     0.000000
      py      :     0.000000
      dz2     :     0.000000  d :     0.000000
      dxz     :    -0.000000
      dyz     :     0.000000
      dx2y2   :     0.000000
      dxy     :     0.000000
  2 C s       :    -0.000000  s :    -0.000000
      pz      :     0.000000  p :     0.000000
      px      :     0.000000
      py      :     0.000000
      dz2     :     0.000000  d :     0.000000
      dxz     :     0.000000
      dyz     :     0.000000
      dx2y2   :     0.000000
      dxy     :     0.000000
  3 C s       :    -0.000000  s :    -0.000000
      pz      :     0.000000  p :     0.000000
      px      :     0.000000
      py      :     0.000000
      dz2     :     0.000000  d :     0.000000
      dxz     :     0.000000
      dyz     :     0.000000
      dx2y2   :     0.000000
      dxy     :     0.000000
  4 H s       :     0.000000  s :     0.000000
  5 H s       :     0.000000  s :     0.000000
  6 H s       :     0.000000  s :     0.000000
  7 H s       :     0.000000  s :     0.000000
  8 H s       :     0.000000  s :     0.000000
  9 H s       :     0.000000  s :     0.000000
 10 H s       :     0.000000  s :     0.000000
 11 H s       :     0.000000  s :     0.000000
 12 H s       :     0.000000  s :     0.000000


                     *******************************
                     * LOEWDIN POPULATION ANALYSIS *
                     *******************************

-------------------------------------------
LOEWDIN ATOMIC CHARGES AND SPIN POPULATIONS
-------------------------------------------
   0 C :   -0.178645   -0.001077
   1 C :   -0.202151    0.957147
   2 C :   -0.306625    0.047754
   3 C :   -0.308335    0.008736
   4 H :    0.112149    0.008589
   5 H :    0.106578   -0.014976
   6 H :    0.107293   -0.012211
   7 H :    0.111957    0.001233
   8 H :    0.112187    0.003527
   9 H :    0.115466    0.002513
  10 H :    0.111972   -0.000408
  11 H :    0.111815   -0.000627
  12 H :    0.106338   -0.000202

----------------------------------------------------
LOEWDIN REDUCED ORBITAL CHARGES AND SPIN POPULATIONS
----------------------------------------------------
CHARGE
  0 C s       :     2.866928  s :     2.866928
      pz      :     1.076181  p :     3.197736
      px      :     1.055140
      py      :     1.066415
      dz2     :     0.027544  d :     0.113981
      dxz     :     0.016667
      dyz     :     0.015812
      dx2y2   :     0.028769
      dxy     :     0.025189
  1 C s       :     3.043572  s :     3.043572
      pz      :     1.045491  p :     3.096497
      px      :     0.982743
      py      :     1.068263
      dz2     :     0.023323  d :     0.062083
      dxz     :     0.005169
      dyz     :     0.007416
      dx2y2   :     0.010325
      dxy     :     0.015850
  2 C s       :     2.955238  s :     2.955238
      pz      :     1.111437  p :     3.275745
      px      :     1.054409
      py      :     1.109899
      dz2     :     0.007143  d :     0.075642
      dxz     :     0.020974
      dyz     :     0.017048
      dx2y2   :     0.019880
      dxy     :     0.010597
  3 C s       :     2.958650  s :     2.958650
      pz      :     1.114787  p :     3.275656
      px      :     1.104390
      py      :     1.056480
      dz2     :     0.013385  d :     0.074028
      dxz     :     0.017676
      dyz     :     0.009778
      dx2y2   :     0.012305
      dxy     :     0.020884
  4 H s       :     0.887851  s :     0.887851
  5 H s       :     0.893422  s :     0.893422
  6 H s       :     0.892707  s :     0.892707
  7 H s       :     0.888043  s :     0.888043
  8 H s       :     0.887813  s :     0.887813
  9 H s       :     0.884534  s :     0.884534
 10 H s       :     0.888028  s :     0.888028
 11 H s       :     0.888185  s :     0.888185
 12 H s       :     0.893662  s :     0.893662

SPIN
  0 C s       :    -0.003419  s :    -0.003419
      pz      :    -0.006486  p :    -0.010922
      px      :     0.001779
      py      :    -0.006215
      dz2     :     0.002486  d :     0.013264
      dxz     :     0.001395
      dyz     :     0.001211
      dx2y2   :     0.006734
      dxy     :     0.001437
  1 C s       :     0.091573  s :     0.091573
      pz      :     0.194312  p :     0.869294
      px      :     0.651527
      py      :     0.023456
      dz2     :    -0.001284  d :    -0.003720
      dxz     :    -0.000676
      dyz     :    -0.000042
      dx2y2   :    -0.000325
      dxy     :    -0.001393
  2 C s       :     0.015697  s :     0.015697
      pz      :     0.001833  p :     0.031769
      px      :     0.026500
      py      :     0.003436
      dz2     :     0.000033  d :     0.000288
      dxz     :     0.000081
      dyz     :     0.000077
      dx2y2   :    -0.000081
      dxy     :     0.000177
  3 C s       :     0.002261  s :     0.002261
      pz      :     0.000935  p :     0.006786
      px      :     0.000653
      py      :     0.005199
      dz2     :     0.000011  d :    -0.000311
      dxz     :    -0.000047
      dyz     :    -0.000079
      dx2y2   :    -0.000031
      dxy     :    -0.000165
  4 H s       :     0.008589  s :     0.008589
  5 H s       :    -0.014976  s :    -0.014976
  6 H s       :    -0.012211  s :    -0.012211
  7 H s       :     0.001233  s :     0.001233
  8 H s       :     0.003527  s :     0.003527
  9 H s       :     0.002513  s :     0.002513
 10 H s       :    -0.000408  s :    -0.000408
 11 H s       :    -0.000627  s :    -0.000627
 12 H s       :    -0.000202  s :    -0.000202


                      *****************************
                      * MAYER POPULATION ANALYSIS *
                      *****************************

  NA   - Mulliken gross atomic population
  ZA   - Total nuclear charge
  QA   - Mulliken gross atomic charge
  VA   - Mayer's total valence
  BVA  - Mayer's bonded valence
  FA   - Mayer's free valence

  ATOM       NA         ZA         QA         VA         BVA        FA
  0 C      6.1263     6.0000    -0.1263     4.2064     4.2036     0.0028
  1 C      6.1835     6.0000    -0.1835     3.9120     3.0386     0.8734
  2 C      6.2551     6.0000    -0.2551     3.9334     3.9317     0.0017
  3 C      6.2451     6.0000    -0.2451     3.9402     3.9401     0.0001
  4 H      0.9242     1.0000     0.0758     0.9382     0.9381     0.0001
  5 H      0.9072     1.0000     0.0928     0.9455     0.9440     0.0015
  6 H      0.9069     1.0000     0.0931     0.9532     0.9521     0.0012
  7 H      0.9074     1.0000     0.0926     0.9670     0.9669     0.0000
  8 H      0.9055     1.0000     0.0945     0.9648     0.9647     0.0001
  9 H      0.9073     1.0000     0.0927     0.9534     0.9534     0.0000
 10 H      0.9076     1.0000     0.0924     0.9653     0.9653     0.0000
 11 H      0.9117     1.0000     0.0883     0.9551     0.9551     0.0000
 12 H      0.9123     1.0000     0.0877     0.9623     0.9623     0.0000

  Mayer bond orders larger than 0.100000
B(  0-C ,  1-C ) :   1.1154 B(  0-C ,  2-C ) :   1.0582 B(  0-C ,  3-C ) :   1.0793 
B(  0-C ,  4-H ) :   0.9294 B(  1-C ,  5-H ) :   0.9422 B(  1-C ,  6-H ) :   0.9382 
B(  2-C ,  7-H ) :   0.9613 B(  2-C ,  8-H ) :   0.9564 B(  2-C ,  9-H ) :   0.9563 
B(  3-C , 10-H ) :   0.9610 B(  3-C , 11-H ) :   0.9610 B(  3-C , 12-H ) :   0.9609 


-------
TIMINGS
-------

Total SCF time: 0 days 0 hours 8 min 52 sec 

Total time                  ....     532.708 sec
Sum of individual times     ....     450.348 sec  ( 84.5%)

Fock matrix formation       ....     376.809 sec  ( 70.7%)
  XC integration            ....     192.822 sec  ( 51.2% of F)
    Basis function eval.    ....       0.841 sec  (  0.4% of XC)
    Density eval.           ....       0.593 sec  (  0.3% of XC)
    XC-Functional eval.     ....       0.357 sec  (  0.2% of XC)
    XC-Potential eval.      ....       0.915 sec  (  0.5% of XC)
Diagonalization             ....       9.916 sec  (  1.9%)
Density matrix formation    ....      33.755 sec  (  6.3%)
Population analysis         ....      16.599 sec  (  3.1%)
Initial guess               ....       1.757 sec  (  0.3%)
Orbital Transformation      ....       0.000 sec  (  0.0%)
Orbital Orthonormalization  ....       0.000 sec  (  0.0%)
DIIS solution               ....       5.589 sec  (  1.0%)
Grid generation             ....       5.922 sec  (  1.1%)


-------------------------------------------------------------------------------
                          DFT DISPERSION CORRECTION                            
                                                                               
                              DFTD3 V3.1  Rev 1                                
                          USING Becke-Johnson damping                          
-------------------------------------------------------------------------------
The B3LYP functional is recognized
Active option DFTDOPT                   ...         4   

molecular C6(AA) [au] = 1132.429888 


            DFT-D V3
 parameters
 s6 scaling factor         :     1.0000 
 a1 scaling factor         :     0.3981 
 s8 scaling factor         :     1.9889 
 a2 scaling factor         :     4.4211 
 ad hoc parameters k1-k3   :    16.0000     1.3333    -4.0000 

 Edisp/kcal,au: -9.134434659999  -0.014556646653 
 E6   /kcal   :  -4.529273098 
 E8   /kcal   :  -4.605161562 
 % E8         :  50.415397707 

-------------------------   ----------------
Dispersion correction           -0.014556647
-------------------------   ----------------


-------------------------   --------------------
FINAL SINGLE POINT ENERGY      -157.518733616047
-------------------------   --------------------

------------------------------------------------------------------------------
                         ORCA SCF GRADIENT CALCULATION
------------------------------------------------------------------------------

Gradient of the Kohn-Sham DFT energy:
Kohn-Sham wavefunction type      ... UKS
Hartree-Fock exchange scaling    ...    0.200
Number of operators              ...    2
Number of atoms                  ...   13
Basis set dimensions             ...   74
Integral neglect threshold       ... 1.0e-12
Integral primitive cutoff        ... 1.0e-14

Nuclear repulsion gradient       ... done
One Electron Gradient            ... done
Pre-screening matrix             ... done
Starting the two electron gradient:
Two electron gradient done
Exchange-correlation gradient    ... done
Dispersion correction            ... done

------------------
CARTESIAN GRADIENT
------------------

   1   C   :    0.026936110    0.001675845   -0.023956223
   2   C   :   -0.034759726   -0.009422173    0.002300789
   3   C   :   -0.044962556    0.000025881    0.003868763
   4   C   :    0.007321751    0.029668500   -0.014344194
   5   H   :   -0.001515422    0.001235188    0.007777868
   6   H   :    0.016262509   -0.004197423    0.003371078
   7   H   :    0.010400116   -0.000108047    0.002111571
   8   H   :   -0.000211691   -0.003914711    0.003834041
   9   H   :    0.003143793   -0.011360348    0.000572865
  10   H   :    0.004509999   -0.000592546    0.006998751
  11   H   :    0.002067315   -0.000420531    0.002079751
  12   H   :    0.000396239    0.000324080    0.009993984
  13   H   :    0.010411563   -0.002913715   -0.004609045

Difference to translation invariance:
           :   -0.0000000000    0.0000000000   -0.0000000000

Norm of the cartesian gradient     ...    0.0820805814
RMS gradient                       ...    0.0131434120
MAX gradient                       ...    0.0449625565

-------
TIMINGS
-------

Total SCF gradient time            ...        4.116 sec

One electron gradient       ....       0.027 sec  (  0.7%)
Prescreening matrices       ....       0.025 sec  (  0.6%)
Two electron gradient       ....       1.319 sec  ( 32.0%)
XC gradient                 ....       2.317 sec  ( 56.3%)
------------------------------------------------------------------------------
                         ORCA GEOMETRY RELAXATION STEP
------------------------------------------------------------------------------

Reading the OPT-File                    .... done
Getting information on internals        .... done
Copying old internal coords+grads       .... done
Making the new internal coordinates     .... (new redundants).... done
Validating the new internal coordinates .... (new redundants).... done
Calculating the B-matrix                .... done
Calculating the G,G- and P matrices     .... done
Transforming gradient to internals      .... done
Projecting the internal gradient        .... done
Number of atoms                         ....  13
Number of internal coordinates          ....  57
Current Energy                          ....  -157.518733616 Eh
Current gradient norm                   ....     0.082080581 Eh/bohr
Maximum allowed component of the step   ....  0.300
Current trust radius                    ....  0.300
Evaluating the initial hessian          ....  (Almloef) done
Projecting the Hessian                  .... done
Forming the augmented Hessian           .... done
Diagonalizing the augmented Hessian     .... done
Last element of RFO vector              ....  0.951138690
Lowest eigenvalues of augmented Hessian:
 -0.019386875  0.012643072  0.012897932  0.014057178  0.068346263
Length of the computed step             ....  0.324625606
Warning: the length of the step is outside the trust region - taking restricted step instead
The input lambda is                     ....    -0.019387
   iter:   1  x=   -0.026379  g=    2.200024 f(x)=     0.015382
   iter:   2  x=   -0.027816  g=    1.599250 f(x)=     0.002299
   iter:   3  x=   -0.027859  g=    1.510928 f(x)=     0.000065
   iter:   4  x=   -0.027859  g=    1.508435 f(x)=     0.000000
   iter:   5  x=   -0.027859  g=    1.508433 f(x)=     0.000000
   iter:   6  x=   -0.027859  g=    1.508433 f(x)=     0.000000
The output lambda is                    ....    -0.027859 (6 iterations)
The final length of the internal step   ....  0.300000000
Converting the step to cartesian space:
 Initial RMS(Int)=    0.0397359707
Transforming coordinates:
 Iter   0:  RMS(Cart)=    0.0883534820 RMS(Int)=    0.0400970009
 Iter   1:  RMS(Cart)=    0.0036797724 RMS(Int)=    0.0025069485
 Iter   2:  RMS(Cart)=    0.0002321377 RMS(Int)=    0.0001659060
 Iter   3:  RMS(Cart)=    0.0000265383 RMS(Int)=    0.0000186942
 Iter   4:  RMS(Cart)=    0.0000021168 RMS(Int)=    0.0000017753
 Iter   5:  RMS(Cart)=    0.0000002254 RMS(Int)=    0.0000001473
 Iter   6:  RMS(Cart)=    0.0000000210 RMS(Int)=    0.0000000186
done
Storing new coordinates                 .... done

                                .--------------------.
          ----------------------|Geometry convergence|-------------------------
          Item                value                   Tolerance       Converged
          ---------------------------------------------------------------------
          RMS gradient        0.0100028365            0.0001000000      NO
          MAX gradient        0.0402624817            0.0003000000      NO
          RMS step            0.0397359707            0.0020000000      NO
          MAX step            0.1137588778            0.0040000000      NO
          ........................................................
          Max(Bonds)      0.0475      Max(Angles)    5.93
          Max(Dihed)        6.52      Max(Improp)    0.00
          ---------------------------------------------------------------------

The optimization has not yet converged - more geometry cycles are needed


    ---------------------------------------------------------------------------
                         Redundant Internal Coordinates
                            (Angstroem and degrees)

        Definition                    Value    dE/dq     Step     New-Value
    ----------------------------------------------------------------------------
     1. B(C   1,C   0)                1.5025 -0.007616  0.0091    1.5116   
     2. B(C   2,C   0)                1.4978 -0.040262  0.0475    1.5454   
     3. B(C   3,C   0)                1.5122 -0.032078  0.0398    1.5520   
     4. B(H   4,C   0)                1.1200  0.007707 -0.0116    1.1083   
     5. B(H   5,C   1)                1.1090  0.002950 -0.0043    1.1047   
     6. B(H   6,C   1)                1.0970 -0.003851  0.0054    1.1024   
     7. B(H   7,C   2)                1.0981 -0.005434  0.0076    1.1057   
     8. B(H   8,C   2)                1.1198  0.010850 -0.0164    1.1035   
     9. B(H   9,C   2)                1.1198  0.007893 -0.0119    1.1079   
    10. B(H  10,C   3)                1.1016 -0.002854  0.0040    1.1057   
    11. B(H  11,C   3)                1.1195  0.008738 -0.0132    1.1063   
    12. B(H  12,C   3)                1.1191  0.010437 -0.0157    1.1034   
    13. A(C   1,C   0,H   4)          105.98 -0.006003   -0.04    105.94   
    14. A(C   2,C   0,H   4)          108.44  0.003562   -0.68    107.75   
    15. A(C   1,C   0,C   2)          113.67  0.014415   -2.72    110.94   
    16. A(C   1,C   0,C   3)          112.96  0.006368   -0.88    112.08   
    17. A(C   2,C   0,C   3)          108.47 -0.023126    4.69    113.16   
    18. A(C   3,C   0,H   4)          107.01  0.005140   -0.44    106.57   
    19. A(H   5,C   1,H   6)          114.32  0.009914    1.15    115.47   
    20. A(C   0,C   1,H   6)          114.51 -0.007466    2.65    117.16   
    21. A(C   0,C   1,H   5)          106.88 -0.026715    5.93    112.81   
    22. A(H   7,C   2,H   9)          106.57  0.001021   -0.37    106.19   
    23. A(C   0,C   2,H   9)          110.91 -0.002686    0.62    111.53   
    24. A(H   7,C   2,H   8)          107.49  0.001368   -0.59    106.89   
    25. A(C   0,C   2,H   8)          112.14 -0.002200    0.45    112.58   
    26. A(H   8,C   2,H   9)          104.43 -0.000399    0.69    105.12   
    27. A(C   0,C   2,H   7)          114.65  0.002832   -0.72    113.94   
    28. A(H  11,C   3,H  12)          106.97  0.004572   -0.49    106.49   
    29. A(H  10,C   3,H  12)          107.13  0.001709   -0.21    106.92   
    30. A(C   0,C   3,H  12)          110.61 -0.007327    1.41    112.02   
    31. A(H  10,C   3,H  11)          107.73  0.002387   -0.79    106.94   
    32. A(C   0,C   3,H  11)          110.71 -0.004714    0.76    111.46   
    33. A(C   0,C   3,H  10)          113.41  0.003871   -0.75    112.66   
    34. D(H   6,C   1,C   0,C   3)    -61.45 -0.000487    3.07    -58.39   
    35. D(H   6,C   1,C   0,H   4)   -178.31 -0.006401    4.10   -174.22   
    36. D(H   6,C   1,C   0,C   2)     62.70 -0.015048    6.52     69.21   
    37. D(H   5,C   1,C   0,H   4)     54.01  0.007627   -4.18     49.82   
    38. D(H   5,C   1,C   0,C   2)    -64.99 -0.001019   -1.76    -66.75   
    39. D(H   5,C   1,C   0,C   3)    170.87  0.013541   -5.21    165.66   
    40. D(H   7,C   2,C   0,C   1)      0.85  0.000778   -0.37      0.48   
    41. D(H   9,C   2,C   0,C   1)    121.60  0.002106   -0.91    120.69   
    42. D(H   8,C   2,C   0,H   4)    120.35 -0.005109    2.78    123.13   
    43. D(H   8,C   2,C   0,C   1)   -122.07 -0.001500    0.63   -121.45   
    44. D(H   7,C   2,C   0,H   4)   -116.72 -0.002831    1.78   -114.94   
    45. D(H   7,C   2,C   0,C   3)    127.40  0.001514    0.17    127.57   
    46. D(H   9,C   2,C   0,C   3)   -111.85  0.002842   -0.37   -112.22   
    47. D(H   9,C   2,C   0,H   4)      4.02 -0.001504    1.25      5.27   
    48. D(H   8,C   2,C   0,C   3)      4.47 -0.000764    1.17      5.64   
    49. D(H  12,C   3,C   0,H   4)   -105.73  0.000900    0.59   -105.15   
    50. D(H  12,C   3,C   0,C   1)    138.02  0.001501    1.39    139.41   
    51. D(H  11,C   3,C   0,H   4)     12.66 -0.001039    1.35     14.02   
    52. D(H  11,C   3,C   0,C   2)    129.46 -0.005974    2.72    132.18   
    53. D(H  11,C   3,C   0,C   1)   -103.58 -0.000438    2.16   -101.42   
    54. D(H  10,C   3,C   0,H   4)    133.89  0.001319    0.35    134.24   
    55. D(H  12,C   3,C   0,C   2)     11.06 -0.004036    1.95     13.01   
    56. D(H  10,C   3,C   0,C   2)   -109.31 -0.003617    1.72   -107.60   
    57. D(H  10,C   3,C   0,C   1)     17.64  0.001920    1.16     18.80   
    ----------------------------------------------------------------------------

Time needed for optimization step       :     2.35 sec

         *************************************************************
         *                GEOMETRY OPTIMIZATION CYCLE   2            *
         *************************************************************
---------------------------------
CARTESIAN COORDINATES (ANGSTROEM)
---------------------------------
  C      0.042178    0.102807    0.337723
  C     -0.847536    1.125566   -0.331144
  C      1.468111    0.138430   -0.256953
  C     -0.587857   -1.315526    0.328465
  H      0.112483    0.410171    1.400278
  H     -0.539188    2.163075   -0.110184
  H     -1.122660    0.935766   -1.381633
  H      1.604245    0.895825   -1.050895
  H      1.773335   -0.832169   -0.684023
  H      2.226471    0.363980    0.518599
  H     -1.388931   -1.420979   -0.426309
  H     -1.034027   -1.566514    1.309208
  H      0.159493   -2.098707    0.115138

----------------------------
CARTESIAN COORDINATES (A.U.)
----------------------------
  NO LB      ZA    FRAG     MASS         X           Y           Z
   0 C     6.0000    0    12.011    0.079705    0.194278    0.638204
   1 C     6.0000    0    12.011   -1.601611    2.127011   -0.625771
   2 C     6.0000    0    12.011    2.774328    0.261595   -0.485571
   3 C     6.0000    0    12.011   -1.110888   -2.485983    0.620708
   4 H     1.0000    0     1.008    0.212562    0.775110    2.646141
   5 H     1.0000    0     1.008   -1.018917    4.087619   -0.208218
   6 H     1.0000    0     1.008   -2.121519    1.768342   -2.610908
   7 H     1.0000    0     1.008    3.031584    1.692864   -1.985903
   8 H     1.0000    0     1.008    3.351118   -1.572571   -1.292616
   9 H     1.0000    0     1.008    4.207421    0.687822    0.980009
  10 H     1.0000    0     1.008   -2.624700   -2.685261   -0.805607
  11 H     1.0000    0     1.008   -1.954028   -2.960283    2.474045
  12 H     1.0000    0     1.008    0.301399   -3.965981    0.217580

--------------------------------
INTERNAL COORDINATES (ANGSTROEM)
--------------------------------
 C      0   0   0     0.000000000000     0.00000000     0.00000000
 C      1   0   0     1.511624519705     0.00000000     0.00000000
 C      1   2   0     1.545378428153   110.92963733     0.00000000
 C      1   2   3     1.551997903994   112.13248078   232.39735461
 H      1   2   3     1.108348630867   105.89670159   116.57218722
 H      2   1   3     1.104684274068   112.49836472   293.12646990
 H      2   1   3     1.102381532329   116.87564213    69.34147886
 H      3   1   2     1.105677555161   113.93578314     0.50986477
 H      3   1   2     1.103454944726   112.57451843   238.58397817
 H      3   1   2     1.107909120436   111.52528114   120.71653207
 H      4   1   2     1.105678131518   112.66533547    18.80792712
 H      4   1   2     1.106309960515   111.45441726   258.58775918
 H      4   1   2     1.103364375482   112.01613987   139.41080340

---------------------------
INTERNAL COORDINATES (A.U.)
---------------------------
 C      0   0   0     0.000000000000     0.00000000     0.00000000
 C      1   0   0     2.856556359562     0.00000000     0.00000000
 C      1   2   0     2.920342002479   110.92963733     0.00000000
 C      1   2   3     2.932850998969   112.13248078   232.39735461
 H      1   2   3     2.094475373244   105.89670159   116.57218722
 H      2   1   3     2.087550742438   112.49836472   293.12646990
 H      2   1   3     2.083199191194   116.87564213    69.34147886
 H      3   1   2     2.089427771678   113.93578314     0.50986477
 H      3   1   2     2.085227646654   112.57451843   238.58397817
 H      3   1   2     2.093644818897   111.52528114   120.71653207
 H      4   1   2     2.089428860835   112.66533547    18.80792712
 H      4   1   2     2.090622844602   111.45441726   258.58775918
 H      4   1   2     2.085056495586   112.01613987   139.41080340


Diagonalization of the overlap matrix:
Smallest eigenvalue                        ... 2.203e-03
Time for diagonalization                   ...    0.001 sec
Threshold for overlap eigenvalues          ... 1.000e-08
Number of eigenvalues below threshold      ... 0
Time for construction of square roots      ...    1.345 sec
Total time needed                          ...    1.346 sec

-------------------
DFT GRID GENERATION
-------------------

General Integration Accuracy     IntAcc      ...  4.340
Radial Grid Type                 RadialGrid  ... Gauss-Chebyshev
Angular Grid (max. acc.)         AngularGrid ... Lebedev-110
Angular grid pruning method      GridPruning ... 3 (G Style)
Weight generation scheme         WeightScheme... Becke
Basis function cutoff            BFCut       ...    1.0000e-12
Integration weight cutoff        WCut        ...    1.0000e-14
Grids for H and He will be reduced by one unit

# of grid points (after initial pruning)     ...  13770 (   0.0 sec)
# of grid points (after weights+screening)   ...  12882 (   0.0 sec)
nearest neighbour list constructed           ...    0.0 sec
Grid point re-assignment to atoms done       ...    0.0 sec
Grid point division into batches done        ...    0.0 sec
Reduced shell lists constructed in    0.1 sec

Total number of grid points                  ...    12882
Total number of batches                      ...      208
Average number of points per batch           ...       61
Average number of grid points per atom       ...      991
Average number of shells per batch           ...    37.32 (88.86%)
Average number of basis functions per batch  ...    66.56 (89.95%)
Average number of large shells per batch     ...    32.65 (87.47%)
Average number of large basis fcns per batch ...    57.64 (86.59%)
Maximum spatial batch extension              ...  20.57, 20.05, 20.30 au
Average spatial batch extension              ...   4.31,  3.90,  3.84 au

Time for grid setup =    2.261 sec

--------------
SCF ITERATIONS
--------------
ITER       Energy         Delta-E        Max-DP      RMS-DP      [F,P]     Damp
               ***  Starting incremental Fock matrix formation  ***
  0   -157.5116634033   0.000000000000 0.00371415  0.00022011  0.0201587 0.7000
  1   -157.5126892650  -0.001025861643 0.00351914  0.00020120  0.0159690 0.7000
                               ***Turning on DIIS***
  2   -157.5134858214  -0.000796556379 0.00927625  0.00052536  0.0119959 0.0000
  3   -157.5154971005  -0.002011279091 0.00283610  0.00009146  0.0015825 0.0000
  4   -157.5155343335  -0.000037233012 0.00262746  0.00007583  0.0009245 0.0000
  5   -157.5155434793  -0.000009145802 0.00049952  0.00001771  0.0004725 0.0000
  6   -157.5155445854  -0.000001106110 0.00034369  0.00000903  0.0001770 0.0000
  7   -157.5155447898  -0.000000204394 0.00004625  0.00000203  0.0000313 0.0000
  8   -157.5155448005  -0.000000010769 0.00001600  0.00000075  0.0000222 0.0000
  9   -157.5155448031  -0.000000002579 0.00000535  0.00000024  0.0000053 0.0000
 10   -157.5155448034  -0.000000000229 0.00000176  0.00000007  0.0000010 0.0000
 11   -157.5155448034  -0.000000000022 0.00000082  0.00000003  0.0000008 0.0000
 12   -157.5155448034  -0.000000000009 0.00000039  0.00000001  0.0000002 0.0000
 13   -157.5155448034  -0.000000000001 0.00000022  0.00000001  0.0000002 0.0000
                 **** Energy Check signals convergence ****

 Fermi smearing  (ALPHA): E(HOMO(Eh)) = -0.318370 MUE = -0.078687 gap=   7.463 eV
 Fermi smearing   (BETA): E(HOMO(Eh)) = -0.315949 MUE = -0.183831 gap=   7.163 eV

N_FOD(alpha) =  0.000000
 N_FOD(beta) =  0.000000
       N_FOD =  0.000000

               *****************************************************
               *                     SUCCESS                       *
               *           SCF CONVERGED AFTER  14 CYCLES          *
               *****************************************************

Setting up the final grid:

General Integration Accuracy     IntAcc      ...  4.670
Radial Grid Type                 RadialGrid  ... Gauss-Chebyshev
Angular Grid (max. acc.)         AngularGrid ... Lebedev-302
Angular grid pruning method      GridPruning ... 3 (G Style)
Weight generation scheme         WeightScheme... Becke
Basis function cutoff            BFCut       ...    1.0000e-12
Integration weight cutoff        WCut        ...    1.0000e-14
Grids for H and He will be reduced by one unit

# of grid points (after initial pruning)     ...  55394 (   0.0 sec)
# of grid points (after weights+screening)   ...  51285 (   0.1 sec)
nearest neighbour list constructed           ...    0.0 sec
Grid point re-assignment to atoms done       ...    0.0 sec
Grid point division into batches done        ...    0.2 sec
Reduced shell lists constructed in    0.3 sec

Total number of grid points                  ...    51285
Total number of batches                      ...      809
Average number of points per batch           ...       63
Average number of grid points per atom       ...     3945
Average number of shells per batch           ...    34.87 (83.02%)
Average number of basis functions per batch  ...    61.97 (83.74%)
Average number of large shells per batch     ...    29.77 (85.37%)
Average number of large basis fcns per batch ...    52.28 (84.37%)
Maximum spatial batch extension              ...  21.03, 19.12, 20.51 au
Average spatial batch extension              ...   2.74,  2.66,  2.63 au

Final grid set up in    1.9 sec
Final integration                            ... done (  17.5 sec)
Change in XC energy                          ...     0.000067577
Integrated number of electrons               ...    32.999987660
Previous integrated no of electrons          ...    33.000472693
Total Energy       :         -157.51547723 Eh           -4286.21404 eV
  Last Energy change         ...    4.3769e-12  Tolerance :   1.0000e-09
  Last MAX-Density change    ...    7.4421e-08  Tolerance :   1.0000e-08
             **** THE GBW FILE WAS UPDATED (orca9.gbw) ****
             **** DENSITY FILE WAS UPDATED (orca9.scfp) ****
             **** ENERGY FILE WAS UPDATED (orca9.en.tmp) ****
             **** THE GBW FILE WAS UPDATED (orca9.gbw) ****
             **** DENSITY FILE WAS UPDATED (orca9.scfp) ****
Total SCF time: 0 days 0 hours 9 min 56 sec 


-------------------------------------------------------------------------------
                          DFT DISPERSION CORRECTION                            
                                                                               
                              DFTD3 V3.1  Rev 1                                
                          USING Becke-Johnson damping                          
-------------------------------------------------------------------------------
-------------------------   ----------------
Dispersion correction           -0.014253354
-------------------------   ----------------


-------------------------   --------------------
FINAL SINGLE POINT ENERGY      -157.529730580184
-------------------------   --------------------

------------------------------------------------------------------------------
                         ORCA SCF GRADIENT CALCULATION
------------------------------------------------------------------------------

Gradient of the Kohn-Sham DFT energy:
Kohn-Sham wavefunction type      ... UKS
Hartree-Fock exchange scaling    ...    0.200
Number of operators              ...    2
Number of atoms                  ...   13
Basis set dimensions             ...   74
Integral neglect threshold       ... 1.0e-12
Integral primitive cutoff        ... 1.0e-14

Nuclear repulsion gradient       ... done
One Electron Gradient            ... done
Pre-screening matrix             ... done
Starting the two electron gradient:
Two electron gradient done
Exchange-correlation gradient    ... done
Dispersion correction            ... done

------------------
CARTESIAN GRADIENT
------------------

   1   C   :    0.016152617    0.002185125   -0.005981283
   2   C   :   -0.020872109   -0.001825289    0.002591802
   3   C   :   -0.013943997   -0.000806223    0.000056159
   4   C   :    0.000244136    0.003229603   -0.001778866
   5   H   :   -0.002540143    0.000417222    0.001804522
   6   H   :    0.008782042   -0.000743412    0.001002468
   7   H   :    0.005460605    0.000542972   -0.002294238
   8   H   :    0.002550386   -0.000274590   -0.000154592
   9   H   :    0.002899565    0.000839818    0.002200214
  10   H   :    0.002028333   -0.000855162    0.000333450
  11   H   :   -0.000773831   -0.001524679    0.001043598
  12   H   :    0.001099549   -0.001437796    0.001780290
  13   H   :   -0.001087154    0.000252413   -0.000603524

Difference to translation invariance:
           :   -0.0000000000    0.0000000000    0.0000000000

Norm of the cartesian gradient     ...    0.0334277942
RMS gradient                       ...    0.0053527310
MAX gradient                       ...    0.0208721090

-------
TIMINGS
-------

Total SCF gradient time            ...        3.792 sec

One electron gradient       ....       0.026 sec  (  0.7%)
Prescreening matrices       ....       0.024 sec  (  0.6%)
Two electron gradient       ....       1.303 sec  ( 34.4%)
XC gradient                 ....       2.288 sec  ( 60.3%)
------------------------------------------------------------------------------
                         ORCA GEOMETRY RELAXATION STEP
------------------------------------------------------------------------------

Reading the OPT-File                    .... done
Getting information on internals        .... done
Copying old internal coords+grads       .... done
Making the new internal coordinates     .... (new redundants).... done
Validating the new internal coordinates .... (new redundants).... done
Calculating the B-matrix                .... done
Calculating the G,G- and P matrices     .... done
Transforming gradient to internals      .... done
Projecting the internal gradient        .... done
Number of atoms                         ....  13
Number of internal coordinates          ....  57
Current Energy                          ....  -157.529730580 Eh
Current gradient norm                   ....     0.033427794 Eh/bohr
Maximum allowed component of the step   ....  0.300
Current trust radius                    ....  0.300
Updating the Hessian (BFGS)             .... done
Forming the augmented Hessian           .... done
Diagonalizing the augmented Hessian     .... done
Last element of RFO vector              ....  0.967922407
Lowest eigenvalues of augmented Hessian:
 -0.003625896  0.012643026  0.012977952  0.014048416  0.060628127
Length of the computed step             ....  0.259575877
The final length of the internal step   ....  0.259575877
Converting the step to cartesian space:
 Initial RMS(Int)=    0.0343816648
Transforming coordinates:
 Iter   0:  RMS(Cart)=    0.0437686166 RMS(Int)=    0.0345357498
 Iter   1:  RMS(Cart)=    0.0020207024 RMS(Int)=    0.0015650945
 Iter   2:  RMS(Cart)=    0.0001079693 RMS(Int)=    0.0000948559
 Iter   3:  RMS(Cart)=    0.0000092749 RMS(Int)=    0.0000064077
 Iter   4:  RMS(Cart)=    0.0000007175 RMS(Int)=    0.0000006581
 Iter   5:  RMS(Cart)=    0.0000000568 RMS(Int)=    0.0000000389
done
Storing new coordinates                 .... done

                                .--------------------.
          ----------------------|Geometry convergence|-------------------------
          Item                value                   Tolerance       Converged
          ---------------------------------------------------------------------
          Energy change      -0.0109969641            0.0000050000      NO
          RMS gradient        0.0026561123            0.0001000000      NO
          MAX gradient        0.0119887975            0.0003000000      NO
          RMS step            0.0343816648            0.0020000000      NO
          MAX step            0.0914194502            0.0040000000      NO
          ........................................................
          Max(Bonds)      0.0146      Max(Angles)    4.53
          Max(Dihed)        5.24      Max(Improp)    0.00
          ---------------------------------------------------------------------

The optimization has not yet converged - more geometry cycles are needed


    ---------------------------------------------------------------------------
                         Redundant Internal Coordinates
                            (Angstroem and degrees)

        Definition                    Value    dE/dq     Step     New-Value
    ----------------------------------------------------------------------------
     1. B(C   1,C   0)                1.5116  0.001957 -0.0025    1.5091   
     2. B(C   2,C   0)                1.5454 -0.006933  0.0146    1.5600   
     3. B(C   3,C   0)                1.5520 -0.000263  0.0034    1.5554   
     4. B(H   4,C   0)                1.1083  0.001684 -0.0043    1.1040   
     5. B(H   5,C   1)                1.1047  0.001951 -0.0042    1.1005   
     6. B(H   6,C   1)                1.1024  0.000732 -0.0010    1.1014   
     7. B(H   7,C   2)                1.1057  0.000236  0.0001    1.1058   
     8. B(H   8,C   2)                1.1035 -0.000792  0.0005    1.1040   
     9. B(H   9,C   2)                1.1079  0.001451 -0.0038    1.1041   
    10. B(H  10,C   3)                1.1057 -0.000005  0.0003    1.1060   
    11. B(H  11,C   3)                1.1063  0.001458 -0.0039    1.1024   
    12. B(H  12,C   3)                1.1034 -0.000796  0.0006    1.1039   
    13. A(C   1,C   0,H   4)          105.90 -0.001070    0.67    106.57   
    14. A(C   2,C   0,H   4)          107.70  0.000742   -0.27    107.43   
    15. A(C   1,C   0,C   2)          110.93  0.001307   -0.85    110.08   
    16. A(C   1,C   0,C   3)          112.13  0.000504   -0.31    111.82   
    17. A(C   2,C   0,C   3)          113.16 -0.001027    0.27    113.43   
    18. A(C   3,C   0,H   4)          106.55 -0.000541    0.55    107.10   
    19. A(H   5,C   1,H   6)          114.96  0.004796    1.57    116.53   
    20. A(C   0,C   1,H   6)          116.88 -0.001651    1.85    118.73   
    21. A(C   0,C   1,H   5)          112.50 -0.011989    4.53    117.03   
    22. A(H   7,C   2,H   9)          106.20 -0.001757    0.39    106.59   
    23. A(C   0,C   2,H   9)          111.53  0.000163    0.20    111.73   
    24. A(H   7,C   2,H   8)          106.89 -0.001859   -0.05    106.84   
    25. A(C   0,C   2,H   8)          112.57  0.002296   -0.53    112.04   
    26. A(H   8,C   2,H   9)          105.11 -0.002825    1.25    106.36   
    27. A(C   0,C   2,H   7)          113.94  0.003252   -1.02    112.91   
    28. A(H  11,C   3,H  12)          106.47 -0.000724    0.38    106.85   
    29. A(H  10,C   3,H  12)          106.92 -0.001315    0.24    107.16   
    30. A(C   0,C   3,H  12)          112.02  0.000033    0.15    112.17   
    31. A(H  10,C   3,H  11)          106.94 -0.000826   -0.02    106.91   
    32. A(C   0,C   3,H  11)          111.45 -0.000109    0.09    111.54   
    33. A(C   0,C   3,H  10)          112.67  0.002686   -0.78    111.89   
    34. D(H   6,C   1,C   0,C   3)    -58.26 -0.004707    5.24    -53.02   
    35. D(H   6,C   1,C   0,H   4)   -174.09 -0.003689    4.32   -169.77   
    36. D(H   6,C   1,C   0,C   2)     69.34 -0.004626    4.65     73.99   
    37. D(H   5,C   1,C   0,H   4)     49.70  0.004508   -3.31     46.39   
    38. D(H   5,C   1,C   0,C   2)    -66.87  0.003571   -2.98    -69.85   
    39. D(H   5,C   1,C   0,C   3)    165.52  0.003490   -2.39    163.13   
    40. D(H   7,C   2,C   0,C   1)      0.51 -0.000090    0.85      1.36   
    41. D(H   9,C   2,C   0,C   1)    120.72  0.000059    0.79    121.50   
    42. D(H   8,C   2,C   0,H   4)    123.13 -0.001740    1.95    125.08   
    43. D(H   8,C   2,C   0,C   1)   -121.42 -0.001893    2.15   -119.27   
    44. D(H   7,C   2,C   0,H   4)   -114.95  0.000063    0.66   -114.29   
    45. D(H   7,C   2,C   0,C   3)    127.55  0.000847   -0.02    127.53   
    46. D(H   9,C   2,C   0,C   3)   -112.24  0.000996   -0.08   -112.33   
    47. D(H   9,C   2,C   0,H   4)      5.26  0.000212    0.59      5.85   
    48. D(H   8,C   2,C   0,C   3)      5.62 -0.000957    1.28      6.90   
    49. D(H  12,C   3,C   0,H   4)   -105.16 -0.000818    2.96   -102.21   
    50. D(H  12,C   3,C   0,C   1)    139.41  0.000521    1.96    141.37   
    51. D(H  11,C   3,C   0,H   4)     14.01 -0.001791    3.60     17.61   
    52. D(H  11,C   3,C   0,C   2)    132.19 -0.001811    3.74    135.93   
    53. D(H  11,C   3,C   0,C   1)   -101.41 -0.000452    2.60    -98.81   
    54. D(H  10,C   3,C   0,H   4)    134.23 -0.001059    3.08    137.31   
[...]

             **** THE GBW FILE WAS UPDATED (orca9.gbw) ****
             **** DENSITY FILE WAS UPDATED (orca9.scfp) ****
             **** ENERGY FILE WAS UPDATED (orca9.en.tmp) ****
             **** THE GBW FILE WAS UPDATED (orca9.gbw) ****
             **** DENSITY FILE WAS UPDATED (orca9.scfp) ****
----------------
ORBITAL ENERGIES
----------------
                 SPIN UP ORBITALS
  NO   OCC          E(Eh)            E(eV) 
   0   1.0000     -10.187780      -277.2236 
   1   1.0000     -10.181167      -277.0436 
   2   1.0000     -10.170500      -276.7534 
   3   1.0000     -10.167476      -276.6711 
   4   1.0000      -0.793359       -21.5884 
   5   1.0000      -0.671119       -18.2621 
   6   1.0000      -0.661416       -17.9980 
   7   1.0000      -0.549925       -14.9642 
   8   1.0000      -0.462576       -12.5873 
   9   1.0000      -0.432386       -11.7658 
  10   1.0000      -0.419992       -11.4286 
  11   1.0000      -0.387731       -10.5507 
  12   1.0000      -0.378199       -10.2913 
  13   1.0000      -0.344561        -9.3760 
  14   1.0000      -0.339622        -9.2416 
  15   1.0000      -0.327459        -8.9106 
  16   1.0000      -0.202435        -5.5085 
  17   0.0000       0.059041         1.6066 
  18   0.0000       0.097615         2.6562 
  19   0.0000       0.106733         2.9044 
  20   0.0000       0.113095         3.0775 
  21   0.0000       0.123038         3.3480 
  22   0.0000       0.141014         3.8372 
  23   0.0000       0.146904         3.9975 
  24   0.0000       0.164062         4.4644 
  25   0.0000       0.174956         4.7608 
  26   0.0000       0.208549         5.6749 
  27   0.0000       0.243040         6.6135 
  28   0.0000       0.259896         7.0721 
  29   0.0000       0.396390        10.7863 
  30   0.0000       0.418371        11.3844 
  31   0.0000       0.426946        11.6178 
  32   0.0000       0.448986        12.2175 
  33   0.0000       0.468133        12.7386 
  34   0.0000       0.496886        13.5210 
  35   0.0000       0.575304        15.6548 
  36   0.0000       0.601204        16.3596 
  37   0.0000       0.640273        17.4227 
  38   0.0000       0.660051        17.9609 
  39   0.0000       0.664702        18.0875 
  40   0.0000       0.665408        18.1067 
  41   0.0000       0.695619        18.9288 
  42   0.0000       0.702991        19.1294 
  43   0.0000       0.704221        19.1628 
  44   0.0000       0.709246        19.2996 
  45   0.0000       0.720541        19.6069 
  46   0.0000       0.725544        19.7431 
  47   0.0000       0.738351        20.0916 
  48   0.0000       0.750035        20.4095 
  49   0.0000       0.752785        20.4843 
  50   0.0000       0.852304        23.1924 
  51   0.0000       0.936890        25.4941 
  52   0.0000       1.043319        28.3902 
  53   0.0000       1.090023        29.6610 
  54   0.0000       1.398554        38.0566 
  55   0.0000       1.526219        41.5305 
  56   0.0000       1.671610        45.4868 
  57   0.0000       1.741567        47.3904 
  58   0.0000       1.750472        47.6328 
  59   0.0000       1.817459        49.4556 
  60   0.0000       1.906823        51.8873 
  61   0.0000       1.934890        52.6510 
  62   0.0000       1.980072        53.8805 
  63   0.0000       2.011930        54.7474 
  64   0.0000       2.048468        55.7417 
  65   0.0000       2.074846        56.4594 
  66   0.0000       2.138356        58.1876 
  67   0.0000       2.146304        58.4039 
  68   0.0000       2.176270        59.2193 
  69   0.0000       2.423102        65.9360 
  70   0.0000       2.431554        66.1660 
  71   0.0000       2.501181        68.0606 
  72   0.0000       2.670016        72.6548 
  73   0.0000       2.678412        72.8833 

                 SPIN DOWN ORBITALS
  NO   OCC          E(Eh)            E(eV) 
   0   1.0000     -10.188685      -277.2482 
   1   1.0000     -10.168999      -276.7125 
   2   1.0000     -10.167221      -276.6641 
   3   1.0000     -10.166602      -276.6473 
   4   1.0000      -0.785934       -21.3864 
   5   1.0000      -0.669247       -18.2111 
   6   1.0000      -0.637633       -17.3509 
   7   1.0000      -0.541333       -14.7304 
   8   1.0000      -0.458042       -12.4639 
   9   1.0000      -0.429668       -11.6919 
  10   1.0000      -0.413021       -11.2389 
  11   1.0000      -0.384372       -10.4593 
  12   1.0000      -0.375062       -10.2059 
  13   1.0000      -0.337803        -9.1921 
  14   1.0000      -0.335050        -9.1172 
  15   1.0000      -0.325326        -8.8526 
  16   0.0000      -0.045738        -1.2446 
  17   0.0000       0.060570         1.6482 
  18   0.0000       0.099007         2.6941 
  19   0.0000       0.112536         3.0623 
  20   0.0000       0.116780         3.1777 
  21   0.0000       0.125455         3.4138 
  22   0.0000       0.142254         3.8709 
  23   0.0000       0.149031         4.0553 
  24   0.0000       0.165414         4.5011 
  25   0.0000       0.176823         4.8116 
  26   0.0000       0.212050         5.7702 
  27   0.0000       0.244962         6.6657 
  28   0.0000       0.268380         7.3030 
  29   0.0000       0.399722        10.8770 
  30   0.0000       0.422698        11.5022 
  31   0.0000       0.432893        11.7796 
  32   0.0000       0.453445        12.3389 
  33   0.0000       0.476791        12.9742 
  34   0.0000       0.544042        14.8041 
  35   0.0000       0.594996        16.1907 
  36   0.0000       0.610227        16.6051 
  37   0.0000       0.645559        17.5666 
  38   0.0000       0.665048        18.0969 
  39   0.0000       0.665786        18.1170 
  40   0.0000       0.674326        18.3493 
  41   0.0000       0.697905        18.9910 
  42   0.0000       0.704388        19.1674 
  43   0.0000       0.708648        19.2833 
  44   0.0000       0.713575        19.4174 
  45   0.0000       0.722759        19.6673 
  46   0.0000       0.729962        19.8633 
  47   0.0000       0.744752        20.2657 
  48   0.0000       0.752542        20.4777 
  49   0.0000       0.759930        20.6787 
  50   0.0000       0.858078        23.3495 
  51   0.0000       0.943314        25.6689 
  52   0.0000       1.045006        28.4361 
  53   0.0000       1.093657        29.7599 
  54   0.0000       1.409099        38.3435 
  55   0.0000       1.531587        41.6766 
  56   0.0000       1.721660        46.8488 
  57   0.0000       1.746013        47.5114 
  58   0.0000       1.773945        48.2715 
  59   0.0000       1.834611        49.9223 
  60   0.0000       1.920254        52.2528 
  61   0.0000       1.938535        52.7502 
  62   0.0000       1.988504        54.1099 
  63   0.0000       2.043638        55.6102 
  64   0.0000       2.077975        56.5446 
  65   0.0000       2.088534        56.8319 
  66   0.0000       2.141562        58.2749 
  67   0.0000       2.147639        58.4402 
  68   0.0000       2.183237        59.4089 
  69   0.0000       2.426945        66.0405 
  70   0.0000       2.443393        66.4881 
  71   0.0000       2.505832        68.1871 
  72   0.0000       2.677069        72.8467 
  73   0.0000       2.683370        73.0182 

                    ********************************
                    * MULLIKEN POPULATION ANALYSIS *
                    ********************************

------------------------------------------
FOD BASED MULLIKEN REDUCED ORBITAL CHARGES
------------------------------------------
  0 C s       :    -0.000000  s :    -0.000000
      pz      :     0.000000  p :     0.000000
      px      :     0.000000
      py      :     0.000000
      dz2     :     0.000000  d :     0.000000
      dxz     :     0.000000
      dyz     :     0.000000
      dx2y2   :     0.000000
      dxy     :     0.000000
  1 C s       :    -0.000000  s :    -0.000000
      pz      :     0.000000  p :     0.000000
      px      :     0.000000
      py      :     0.000000
      dz2     :     0.000000  d :     0.000000
      dxz     :     0.000000
      dyz     :     0.000000
      dx2y2   :     0.000000
      dxy     :     0.000000
  2 C s       :    -0.000000  s :    -0.000000
      pz      :     0.000000  p :     0.000000
      px      :     0.000000
      py      :     0.000000
      dz2     :     0.000000  d :     0.000000
      dxz     :     0.000000
      dyz     :     0.000000
      dx2y2   :     0.000000
      dxy     :     0.000000
  3 C s       :    -0.000000  s :    -0.000000
      pz      :     0.000000  p :     0.000000
      px      :     0.000000
      py      :     0.000000
      dz2     :     0.000000  d :     0.000000
      dxz     :     0.000000
      dyz     :     0.000000
      dx2y2   :     0.000000
      dxy     :     0.000000
  4 H s       :     0.000000  s :     0.000000
  5 H s       :     0.000000  s :     0.000000
  6 H s       :     0.000000  s :     0.000000
  7 H s       :     0.000000  s :     0.000000
  8 H s       :     0.000000  s :     0.000000
  9 H s       :     0.000000  s :     0.000000
 10 H s       :     0.000000  s :     0.000000
 11 H s       :     0.000000  s :     0.000000
 12 H s       :     0.000000  s :     0.000000


                     *******************************
                     * LOEWDIN POPULATION ANALYSIS *
                     *******************************

-------------------------------------------
LOEWDIN ATOMIC CHARGES AND SPIN POPULATIONS
-------------------------------------------
   0 C :   -0.159982   -0.012587
   1 C :   -0.222640    0.977932
   2 C :   -0.307865    0.050533
   3 C :   -0.308168    0.009456
   4 H :    0.113257    0.016737
   5 H :    0.112631   -0.025725
   6 H :    0.112956   -0.025902
   7 H :    0.110266    0.000069
   8 H :    0.109470    0.000134
   9 H :    0.109425    0.008576
  10 H :    0.108952   -0.000300
  11 H :    0.111854    0.000660
  12 H :    0.109844    0.000416

----------------------------------------------------
LOEWDIN REDUCED ORBITAL CHARGES AND SPIN POPULATIONS
----------------------------------------------------
CHARGE
  0 C s       :     2.876528  s :     2.876528
      pz      :     1.067844  p :     3.172232
      px      :     1.047754
      py      :     1.056635
      dz2     :     0.024519  d :     0.111221
      dxz     :     0.018216
      dyz     :     0.018763
      dx2y2   :     0.024853
      dxy     :     0.024869
  1 C s       :     3.018103  s :     3.018103
      pz      :     1.040770  p :     3.147626
      px      :     1.032223
      py      :     1.074632
      dz2     :     0.009527  d :     0.056911
      dxz     :     0.011256
      dyz     :     0.008636
      dx2y2   :     0.016974
      dxy     :     0.010519
  2 C s       :     2.963829  s :     2.963829
      pz      :     1.107291  p :     3.271679
      px      :     1.054938
      py      :     1.109450
      dz2     :     0.018176  d :     0.072357
      dxz     :     0.013066
      dyz     :     0.010045
      dx2y2   :     0.012748
      dxy     :     0.018323
  3 C s       :     2.956736  s :     2.956736
      pz      :     1.111973  p :     3.278692
      px      :     1.102693
      py      :     1.064025
      dz2     :     0.012571  d :     0.072741
      dxz     :     0.014266
      dyz     :     0.015330
      dx2y2   :     0.015241
      dxy     :     0.015331
  4 H s       :     0.886743  s :     0.886743
  5 H s       :     0.887369  s :     0.887369
  6 H s       :     0.887044  s :     0.887044
  7 H s       :     0.889734  s :     0.889734
  8 H s       :     0.890530  s :     0.890530
  9 H s       :     0.890575  s :     0.890575
 10 H s       :     0.891048  s :     0.891048
 11 H s       :     0.888146  s :     0.888146
 12 H s       :     0.890156  s :     0.890156

SPIN
  0 C s       :    -0.005112  s :    -0.005112
      pz      :    -0.007768  p :    -0.023859
      px      :    -0.007706
      py      :    -0.008385
      dz2     :     0.004799  d :     0.016384
      dxz     :     0.002193
      dyz     :     0.001753
      dx2y2   :     0.005563
      dxy     :     0.002075
  1 C s       :     0.040576  s :     0.040576
      pz      :     0.448132  p :     0.941186
      px      :     0.468413
      py      :     0.024641
      dz2     :    -0.000284  d :    -0.003831
      dxz     :    -0.002143
      dyz     :    -0.000275
      dx2y2   :    -0.000733
      dxy     :    -0.000396
  2 C s       :     0.016853  s :     0.016853
      pz      :     0.004464  p :     0.033196
      px      :     0.026624
      py      :     0.002108
      dz2     :    -0.000179  d :     0.000484
      dxz     :     0.000212
      dyz     :     0.000089
      dx2y2   :    -0.000025
      dxy     :     0.000386
  3 C s       :     0.002178  s :     0.002178
      pz      :     0.000883  p :     0.007426
      px      :     0.000618
      py      :     0.005925
      dz2     :     0.000064  d :    -0.000148
      dxz     :    -0.000017
      dyz     :    -0.000029
      dx2y2   :    -0.000103
      dxy     :    -0.000063
  4 H s       :     0.016737  s :     0.016737
  5 H s       :    -0.025725  s :    -0.025725
  6 H s       :    -0.025902  s :    -0.025902
  7 H s       :     0.000069  s :     0.000069
  8 H s       :     0.000134  s :     0.000134
  9 H s       :     0.008576  s :     0.008576
 10 H s       :    -0.000300  s :    -0.000300
 11 H s       :     0.000660  s :     0.000660
 12 H s       :     0.000416  s :     0.000416


                      *****************************
                      * MAYER POPULATION ANALYSIS *
                      *****************************

  NA   - Mulliken gross atomic population
  ZA   - Total nuclear charge
  QA   - Mulliken gross atomic charge
  VA   - Mayer's total valence
  BVA  - Mayer's bonded valence
  FA   - Mayer's free valence

  ATOM       NA         ZA         QA         VA         BVA        FA
  0 C      6.0983     6.0000    -0.0983     4.1977     4.1945     0.0032
  1 C      6.2390     6.0000    -0.2390     3.8895     2.9956     0.8939
  2 C      6.2350     6.0000    -0.2350     3.9405     3.9386     0.0019
  3 C      6.2378     6.0000    -0.2378     3.9535     3.9534     0.0001
  4 H      0.9314     1.0000     0.0686     0.9386     0.9382     0.0004
  5 H      0.8956     1.0000     0.1044     0.9495     0.9466     0.0028
  6 H      0.8992     1.0000     0.1008     0.9560     0.9531     0.0028
  7 H      0.9084     1.0000     0.0916     0.9577     0.9577     0.0000
  8 H      0.9148     1.0000     0.0852     0.9649     0.9649     0.0000
  9 H      0.9099     1.0000     0.0901     0.9569     0.9566     0.0002
 10 H      0.9141     1.0000     0.0859     0.9616     0.9616     0.0000
 11 H      0.9060     1.0000     0.0940     0.9552     0.9552     0.0000
 12 H      0.9106     1.0000     0.0894     0.9575     0.9575     0.0000

  Mayer bond orders larger than 0.100000
B(  0-C ,  1-C ) :   1.0797 B(  0-C ,  2-C ) :   1.0790 B(  0-C ,  3-C ) :   1.0927 
B(  0-C ,  4-H ) :   0.9113 B(  1-C ,  5-H ) :   0.9414 B(  1-C ,  6-H ) :   0.9409 
B(  2-C ,  7-H ) :   0.9595 B(  2-C ,  8-H ) :   0.9565 B(  2-C ,  9-H ) :   0.9534 
B(  3-C , 10-H ) :   0.9560 B(  3-C , 11-H ) :   0.9591 B(  3-C , 12-H ) :   0.9582 


-------
TIMINGS
-------

Total SCF time: 0 days 0 hours 2 min 8 sec 

Total time                  ....     128.321 sec
Sum of individual times     ....     102.594 sec  ( 80.0%)

Fock matrix formation       ....      87.580 sec  ( 68.3%)
  XC integration            ....      41.616 sec  ( 47.5% of F)
    Basis function eval.    ....       0.547 sec  (  1.3% of XC)
    Density eval.           ....       0.380 sec  (  0.9% of XC)
    XC-Functional eval.     ....       0.233 sec  (  0.6% of XC)
    XC-Potential eval.      ....       0.547 sec  (  1.3% of XC)
Diagonalization             ....       1.923 sec  (  1.5%)
Density matrix formation    ....       5.461 sec  (  4.3%)
Population analysis         ....       3.308 sec  (  2.6%)
Initial guess               ....       0.003 sec  (  0.0%)
Orbital Transformation      ....       0.000 sec  (  0.0%)
Orbital Orthonormalization  ....       0.001 sec  (  0.0%)
DIIS solution               ....       1.808 sec  (  1.4%)
Grid generation             ....       2.511 sec  (  2.0%)


-------------------------------------------------------------------------------
                          DFT DISPERSION CORRECTION                            
                                                                               
                              DFTD3 V3.1  Rev 1                                
                          USING Becke-Johnson damping                          
-------------------------------------------------------------------------------
The B3LYP functional is recognized
Active option DFTDOPT                   ...         4   

molecular C6(AA) [au] = 1132.635675 


            DFT-D V3
 parameters
 s6 scaling factor         :     1.0000 
 a1 scaling factor         :     0.3981 
 s8 scaling factor         :     1.9889 
 a2 scaling factor         :     4.4211 
 ad hoc parameters k1-k3   :    16.0000     1.3333    -4.0000 

 Edisp/kcal,au: -9.029336483941  -0.014389162067 
 E6   /kcal   :  -4.469201735 
 E8   /kcal   :  -4.560134749 
 % E8         :  50.503542065 

-------------------------   ----------------
Dispersion correction           -0.014389162
-------------------------   ----------------


-------------------------   --------------------
FINAL SINGLE POINT ENERGY      -157.545004219365
-------------------------   --------------------

                                *** OPTIMIZATION RUN DONE ***

                            ***************************************
                            *     ORCA property calculations      *
                            ***************************************

                                    ---------------------
                                    Active property flags
                                    ---------------------
   (+) Dipole Moment


------------------------------------------------------------------------------
                       ORCA ELECTRIC PROPERTIES CALCULATION
------------------------------------------------------------------------------

Dipole Moment Calculation                       ... on
Quadrupole Moment Calculation                   ... off
Polarizability Calculation                      ... off
GBWName                                         ... orca9.gbw
Electron density file                           ... orca9.scfp
The origin for moment calculation is the CENTER OF MASS  = ( 0.155577, -0.009174  0.006497)

-------------
DIPOLE MOMENT
-------------
                                X             Y             Z
Electronic contribution:     -0.72060       1.03559       0.30731
Nuclear contribution   :      0.81506      -1.06014      -0.28309
                        -----------------------------------------
Total Dipole Moment    :      0.09445      -0.02455       0.02421
                        -----------------------------------------
Magnitude (a.u.)       :      0.10055
Magnitude (Debye)      :      0.25558



--------------------
Rotational spectrum 
--------------------
 
Rotational constants in cm-1:     0.274415     0.261653     0.155148 
Rotational constants in MHz :  8226.756654  7844.149111  4651.228452 

 Dipole components along the rotational axes: 
x,y,z [a.u.] :     0.036574     0.090137     0.025459 
x,y,z [Debye]:     0.092964     0.229111     0.064712 

 

Timings for individual modules:

Sum of individual times         ...     8662.826 sec (= 144.380 min)
GTO integral calculation        ...      226.165 sec (=   3.769 min)   2.6 %
SCF iterations                  ...     8216.319 sec (= 136.939 min)  94.8 %
SCF Gradient evaluation         ...      134.611 sec (=   2.244 min)   1.6 %
Geometry relaxation             ...       85.730 sec (=   1.429 min)   1.0 %
                             ****ORCA TERMINATED NORMALLY****
TOTAL RUN TIME: 0 days 2 hours 29 minutes 14 seconds 861 msec
