
                                 *****************
                                 * O   R   C   A *
                                 *****************

           --- An Ab Initio, DFT and Semiempirical electronic structure package ---

                  #######################################################
                  #                        -***-                        #
                  #          Department of theory and spectroscopy      #
                  #               Directorship: Frank Neese             #
                  #        Max Planck Institute fuer Kohlenforschung    #
                  #                Kaiser Wilhelm Platz 1               #
                  #                 D-45470 Muelheim/Ruhr               #
                  #                      Germany                        #
                  #                                                     #
                  #                  All rights reserved                #
                  #                        -***-                        #
                  #######################################################


                         Program Version 4.2.1 -  RELEASE  -


 With contributions from (in alphabetic order):
   Daniel Aravena         : Magnetic Suceptibility
   Michael Atanasov       : Ab Initio Ligand Field Theory (pilot matlab implementation)
   Alexander A. Auer      : GIAO ZORA, VPT2
   Ute Becker             : Parallelization
   Giovanni Bistoni       : ED, misc. LED, open-shell LED, HFLD
   Martin Brehm           : Molecular dynamics
   Dmytro Bykov           : SCF Hessian
   Vijay G. Chilkuri      : MRCI spin determinant printing, contributions to CSF-ICE
   Dipayan Datta          : RHF DLPNO-CCSD density
   Achintya Kumar Dutta   : EOM-CC, STEOM-CC
   Dmitry Ganyushin       : Spin-Orbit,Spin-Spin,Magnetic field MRCI
   Miquel Garcia          : C-PCM Hessian, Gaussian charge scheme
   Yang Guo               : DLPNO-NEVPT2, CIM, IAO-localization
   Andreas Hansen         : Spin unrestricted coupled pair/coupled cluster methods
   Benjamin Helmich-Paris : CASSCF linear response (MC-RPA)
   Lee Huntington         : MR-EOM, pCC
   Robert Izsak           : Overlap fitted RIJCOSX, COSX-SCS-MP3, EOM
   Christian Kollmar      : KDIIS, OOCD, Brueckner-CCSD(T), CCSD density
   Simone Kossmann        : Meta GGA functionals, TD-DFT gradient, OOMP2, MP2 Hessian
   Martin Krupicka        : AUTO-CI
   Lucas Lang             : DCDCAS
   Dagmar Lenk            : GEPOL surface, SMD
   Dimitrios Liakos       : Extrapolation schemes; Compound Job, initial MDCI parallelization
   Dimitrios Manganas     : Further ROCIS development; embedding schemes
   Dimitrios Pantazis     : SARC Basis sets
   Taras Petrenko         : DFT Hessian,TD-DFT gradient, ASA, ECA, R-Raman, ABS, FL, XAS/XES, NRVS
   Peter Pinski           : DLPNO-MP2, DLPNO-MP2 Gradient
   Christoph Reimann      : Effective Core Potentials
   Marius Retegan         : Local ZFS, SOC
   Christoph Riplinger    : Optimizer, TS searches, QM/MM, DLPNO-CCSD(T), (RO)-DLPNO pert. Triples
   Tobias Risthaus        : Range-separated hybrids, TD-DFT gradient, RPA, STAB
   Michael Roemelt        : Original ROCIS implementation
   Masaaki Saitow         : Open-shell DLPNO-CCSD energy and density
   Barbara Sandhoefer     : DKH picture change effects
   Avijit Sen             : IP-ROCIS
   Kantharuban Sivalingam : CASSCF convergence, NEVPT2, FIC-MRCI
   Bernardo de Souza      : ESD, SOC TD-DFT
   Georgi Stoychev        : AutoAux, RI-MP2 NMR
   Willem Van den Heuvel  : Paramagnetic NMR
   Boris Wezisla          : Elementary symmetry handling
   Frank Wennmohs         : Technical directorship


 We gratefully acknowledge several colleagues who have allowed us to
 interface, adapt or use parts of their codes:
   Stefan Grimme, W. Hujo, H. Kruse,             : VdW corrections, initial TS optimization,
                  C. Bannwarth                     DFT functionals, gCP, sTDA/sTD-DF
   Ed Valeev, F. Pavosevic, A. Kumar             : LibInt (2-el integral package), F12 methods
   Garnet Chan, S. Sharma, J. Yang, R. Olivares  : DMRG
   Ulf Ekstrom                                   : XCFun DFT Library
   Mihaly Kallay                                 : mrcc  (arbitrary order and MRCC methods)
   Andreas Klamt, Michael Diedenhofen            : otool_cosmo (COSMO solvation model)
   Jiri Pittner, Ondrej Demel                    : Mk-CCSD
   Frank Weinhold                                : gennbo (NPA and NBO analysis)
   Christopher J. Cramer and Donald G. Truhlar   : smd solvation model
   Lars Goerigk                                  : TD-DFT with DH, B97 family of functionals
   V. Asgeirsson, H. Jonsson                     : NEB implementation
   FAccTs GmbH                                   : IRC, NEB, NEB-TS, Multilevel, MM, QM/MM, CI optimization
   S Lehtola, MJT Oliveira, MAL Marques          : LibXC Library


 Your calculation uses the libint2 library for the computation of 2-el integrals
 For citations please refer to: http://libint.valeyev.net

 Your ORCA version has been built with support for libXC version: 4.2.3
 For citations please refer to: https://tddft.org/programs/libxc/

 This ORCA versions uses:
   CBLAS   interface :  Fast vector & matrix operations
   LAPACKE interface :  Fast linear algebra routines
   SCALAPACK package :  Parallel linear algebra routines


Your calculation utilizes the atom-pairwise dispersion correction
with the Becke-Johnson damping scheme (D3BJ)
Cite in your paper:
S.Grimme, S.Ehrlich, L.Goerigk, J Comput Chem, (2011), 32, 1456–1465 
S.Grimme, J.Antony, S.Ehrlich and H.Krieg, J.Chem.Phys., 132, (2010), 154104 
   

----- Orbital basis set information -----
Your calculation utilizes the basis: def2-SV(P)
   F. Weigend and R. Ahlrichs, Phys. Chem. Chem. Phys. 7, 3297 (2005).

----- AuxJ basis set information -----
Your calculation utilizes the auxiliary basis: def2/J
   F. Weigend, Phys. Chem. Chem. Phys. 8, 1057 (2006).

================================================================================
                                        WARNINGS
                       Please study these warnings very carefully!
================================================================================


WARNING: Geometry Optimization
  ===> : Switching off AutoStart
         For restart on a previous wavefunction, please use MOREAD

INFO   : the flag for use of LIBINT has been found!

================================================================================
                                       INPUT FILE
================================================================================
NAME = orca8.inp
|  1> ! UKS B3LYP def2-SV(P) def2/J D3BJ Opt
|  2> %scf Convergence VeryTight
|  3> SmearTemp 2000
|  4> maxiter 500
|  5> end
|  6> *xyz 0 2
|  7> C -0.078024 0.057177 0.373548
|  8> C 1.265433 -0.608904 0.147611
|  9> C -1.175437 -0.828589 -0.146067
| 10> C -0.094988 1.436795 -0.232256
| 11> H -0.249116 0.163443 1.475314
| 12> H 1.875218 -0.458865 1.074147
| 13> H 1.106826 -1.685632 -0.082089
| 14> H -0.962242 -1.860898 0.229844
| 15> H -1.196159 -0.908035 -1.249728
| 16> H -2.174879 -0.573486 0.259115
| 17> H -0.392092 2.215481 0.515502
| 18> H 0.958985 1.702901 -0.50014
| 19> H -0.70523 1.500086 -1.15741
| 20> *
| 21> 
| 22>                          ****END OF INPUT****
================================================================================

                       *****************************
                       * Geometry Optimization Run *
                       *****************************

Geometry optimization settings:
Update method            Update   .... BFGS
Choice of coordinates    CoordSys .... Z-matrix Internals
Initial Hessian          InHess   .... Almoef's Model

Convergence Tolerances:
Energy Change            TolE     ....  5.0000e-06 Eh
Max. Gradient            TolMAXG  ....  3.0000e-04 Eh/bohr
RMS Gradient             TolRMSG  ....  1.0000e-04 Eh/bohr
Max. Displacement        TolMAXD  ....  4.0000e-03 bohr
RMS Displacement         TolRMSD  ....  2.0000e-03 bohr
Strict Convergence                ....  False
------------------------------------------------------------------------------
                        ORCA OPTIMIZATION COORDINATE SETUP
------------------------------------------------------------------------------

The optimization will be done in new redundant internal coordinates
Making redundant internal coordinates   ...  (new redundants) done
Evaluating the initial hessian          ...  (Almloef) done
Evaluating the coordinates              ...  done
Calculating the B-matrix                .... done
Calculating the G-matrix                .... done
Diagonalizing the G-matrix              .... done
The first mode is                       ....   24
The number of degrees of freedom        ....   33

    -----------------------------------------------------------------
                    Redundant Internal Coordinates


    -----------------------------------------------------------------
         Definition                    Initial Value    Approx d2E/dq
    -----------------------------------------------------------------
      1. B(C   1,C   0)                  1.5164         0.392656   
      2. B(C   2,C   0)                  1.5030         0.412586   
      3. B(C   3,C   0)                  1.5069         0.406718   
      4. B(H   4,C   0)                  1.1200         0.322494   
      5. B(H   5,C   1)                  1.1193         0.323360   
      6. B(H   6,C   1)                  1.1123         0.331748   
      7. B(H   7,C   2)                  1.1191         0.323570   
      8. B(H   8,C   2)                  1.1067         0.338659   
      9. B(H   9,C   2)                  1.1082         0.336796   
     10. B(H  10,C   3)                  1.1197         0.322859   
     11. B(H  11,C   3)                  1.1196         0.323034   
     12. B(H  12,C   3)                  1.1101         0.334474   
     13. A(C   1,C   0,H   4)          108.8789         0.321120   
     14. A(C   2,C   0,H   4)          106.5271         0.323735   
     15. A(C   1,C   0,C   2)          109.6638         0.372771   
     16. A(C   1,C   0,C   3)          110.6234         0.371852   
     17. A(C   2,C   0,C   3)          113.1019         0.375040   
     18. A(C   3,C   0,H   4)          107.8719         0.322975   
     19. A(H   5,C   1,H   6)          112.2336         0.282360   
     20. A(C   0,C   1,H   6)          109.2461         0.322611   
     21. A(C   0,C   1,H   5)          107.4838         0.321260   
     22. A(H   7,C   2,H   9)          105.1491         0.283051   
     23. A(C   0,C   2,H   9)          113.3554         0.326052   
     24. A(H   7,C   2,H   8)          105.8026         0.283293   
     25. A(C   0,C   2,H   8)          113.6252         0.326348   
     26. A(H   8,C   2,H   9)          111.3613         0.285063   
     27. A(C   0,C   2,H   7)          106.7624         0.323912   
     28. A(H  11,C   3,H  12)          107.7311         0.282674   
     29. A(H  10,C   3,H  12)          111.7799         0.282651   
     30. A(C   0,C   3,H  12)          113.1688         0.324915   
     31. A(H  10,C   3,H  11)          104.1398         0.281131   
     32. A(C   0,C   3,H  11)          107.6507         0.323064   
     33. A(C   0,C   3,H  10)          111.7905         0.323035   
     34. D(H   6,C   1,C   0,C   3)   -140.8804         0.011462   
     35. D(H   6,C   1,C   0,H   4)    100.7445         0.011462   
     36. D(H   6,C   1,C   0,C   2)    -15.4525         0.011462   
     37. D(H   5,C   1,C   0,H   4)    -21.2724         0.011462   
     38. D(H   5,C   1,C   0,C   2)   -137.4694         0.011462   
     39. D(H   5,C   1,C   0,C   3)     97.1028         0.011462   
     40. D(H   7,C   2,C   0,C   1)     46.4760         0.013480   
     41. D(H   9,C   2,C   0,C   1)    161.7756         0.013480   
     42. D(H   8,C   2,C   0,H   4)    172.5587         0.013480   
     43. D(H   8,C   2,C   0,C   1)    -69.7668         0.013480   
     44. D(H   7,C   2,C   0,H   4)    -71.1985         0.013480   
     45. D(H   7,C   2,C   0,C   3)    170.4681         0.013480   
     46. D(H   9,C   2,C   0,C   3)    -74.2323         0.013480   
     47. D(H   9,C   2,C   0,H   4)     44.1011         0.013480   
     48. D(H   8,C   2,C   0,C   3)     54.2253         0.013480   
     49. D(H  12,C   3,C   0,H   4)   -134.1707         0.013110   
     50. D(H  12,C   3,C   0,C   1)    106.8427         0.013110   
     51. D(H  11,C   3,C   0,H   4)    106.8952         0.013110   
     52. D(H  11,C   3,C   0,C   2)   -135.5562         0.013110   
     53. D(H  11,C   3,C   0,C   1)    -12.0914         0.013110   
     54. D(H  10,C   3,C   0,H   4)     -6.8888         0.013110   
     55. D(H  12,C   3,C   0,C   2)    -16.6221         0.013110   
     56. D(H  10,C   3,C   0,C   2)    110.6597         0.013110   
     57. D(H  10,C   3,C   0,C   1)   -125.8754         0.013110   
    -----------------------------------------------------------------

Number of atoms                         .... 13
Number of degrees of freedom            .... 57

Time needed for optimization step       :     4.53 sec

         *************************************************************
         *                GEOMETRY OPTIMIZATION CYCLE   1            *
         *************************************************************
---------------------------------
CARTESIAN COORDINATES (ANGSTROEM)
---------------------------------
  C     -0.078024    0.057177    0.373548
  C      1.265433   -0.608904    0.147611
  C     -1.175437   -0.828589   -0.146067
  C     -0.094988    1.436795   -0.232256
  H     -0.249116    0.163443    1.475314
  H      1.875218   -0.458865    1.074147
  H      1.106826   -1.685632   -0.082089
  H     -0.962242   -1.860898    0.229844
  H     -1.196159   -0.908035   -1.249728
  H     -2.174879   -0.573486    0.259115
  H     -0.392092    2.215481    0.515502
  H      0.958985    1.702901   -0.500140
  H     -0.705230    1.500086   -1.157410

----------------------------
CARTESIAN COORDINATES (A.U.)
----------------------------
  NO LB      ZA    FRAG     MASS         X           Y           Z
   0 C     6.0000    0    12.011   -0.147444    0.108049    0.705903
   1 C     6.0000    0    12.011    2.391322   -1.150662    0.278944
   2 C     6.0000    0    12.011   -2.221254   -1.565806   -0.276027
   3 C     6.0000    0    12.011   -0.179501    2.715149   -0.438900
   4 H     1.0000    0     1.008   -0.470761    0.308863    2.787939
   5 H     1.0000    0     1.008    3.543648   -0.867129    2.029844
   6 H     1.0000    0     1.008    2.091598   -3.185383   -0.155126
   7 H     1.0000    0     1.008   -1.818374   -3.516588    0.434342
   8 H     1.0000    0     1.008   -2.260413   -1.715937   -2.361644
   9 H     1.0000    0     1.008   -4.109926   -1.083731    0.489656
  10 H     1.0000    0     1.008   -0.740946    4.186652    0.974158
  11 H     1.0000    0     1.008    1.812219    3.218017   -0.945128
  12 H     1.0000    0     1.008   -1.332692    2.834752   -2.187188

--------------------------------
INTERNAL COORDINATES (ANGSTROEM)
--------------------------------
 C      0   0   0     0.000000000000     0.00000000     0.00000000
 C      1   0   0     1.516439295646     0.00000000     0.00000000
 C      1   2   0     1.502962556935   109.66379258     0.00000000
 C      1   2   3     1.506861669045   110.62339823   234.57211492
 H      1   2   3     1.120023773844   108.87893903   116.19697391
 H      2   1   3     1.119293709016   107.48381714   222.53063990
 H      2   1   3     1.112322550537   109.24611216   344.54752470
 H      3   1   2     1.119117089239   106.76240499    46.47602117
 H      3   1   2     1.106710744107   113.62524351   290.23319875
 H      3   1   2     1.108212211220   113.35541602   161.77559855
 H      4   1   2     1.119716347999   111.79053829   234.12457840
 H      4   1   2     1.119568365675   107.65066419   347.90860053
 H      4   1   2     1.110095028798   113.16875306   106.84272130

---------------------------
INTERNAL COORDINATES (A.U.)
---------------------------
 C      0   0   0     0.000000000000     0.00000000     0.00000000
 C      1   0   0     2.865654967487     0.00000000     0.00000000
 C      1   2   0     2.840187622146   109.66379258     0.00000000
 C      1   2   3     2.847555876198   110.62339823   234.57211492
 H      1   2   3     2.116538196046   108.87893903   116.19697391
 H      2   1   3     2.115158573461   107.48381714   222.53063990
 H      2   1   3     2.101984993100   109.24611216   344.54752470
 H      3   1   2     2.114824810453   106.76240499    46.47602117
 H      3   1   2     2.091380215830   113.62524351   290.23319875
 H      3   1   2     2.094217577473   113.35541602   161.77559855
 H      4   1   2     2.115957245392   111.79053829   234.12457840
 H      4   1   2     2.115677599328   107.65066419   347.90860053
 H      4   1   2     2.097775587055   113.16875306   106.84272130

---------------------
BASIS SET INFORMATION
---------------------
There are 2 groups of distinct atoms

 Group   1 Type C   : 7s4p1d contracted to 3s2p1d pattern {511/31/1}
 Group   2 Type H   : 4s contracted to 2s pattern {31}

Atom   0C    basis set group =>   1
Atom   1C    basis set group =>   1
Atom   2C    basis set group =>   1
Atom   3C    basis set group =>   1
Atom   4H    basis set group =>   2
Atom   5H    basis set group =>   2
Atom   6H    basis set group =>   2
Atom   7H    basis set group =>   2
Atom   8H    basis set group =>   2
Atom   9H    basis set group =>   2
Atom  10H    basis set group =>   2
Atom  11H    basis set group =>   2
Atom  12H    basis set group =>   2
---------------------------------
AUXILIARY/J BASIS SET INFORMATION
---------------------------------
There are 2 groups of distinct atoms

 Group   1 Type C   : 12s5p4d2f1g contracted to 6s4p3d1f1g pattern {711111/2111/211/2/1}
 Group   2 Type H   : 5s2p1d contracted to 3s1p1d pattern {311/2/1}

Atom   0C    basis set group =>   1
Atom   1C    basis set group =>   1
Atom   2C    basis set group =>   1
Atom   3C    basis set group =>   1
Atom   4H    basis set group =>   2
Atom   5H    basis set group =>   2
Atom   6H    basis set group =>   2
Atom   7H    basis set group =>   2
Atom   8H    basis set group =>   2
Atom   9H    basis set group =>   2
Atom  10H    basis set group =>   2
Atom  11H    basis set group =>   2
Atom  12H    basis set group =>   2
------------------------------------------------------------------------------
                           ORCA GTO INTEGRAL CALCULATION
------------------------------------------------------------------------------

                         BASIS SET STATISTICS AND STARTUP INFO

 # of primitive gaussian shells          ...   84
 # of primitive gaussian functions       ...  132
 # of contracted shells                  ...   42
 # of contracted basis functions         ...   74
 Highest angular momentum                ...    2
 Maximum contraction depth               ...    5
 Integral package used                   ... LIBINT
 Integral threshhold            Thresh   ...  1.000e-12
 Primitive cut-off              TCut     ...  1.000e-14


------------------------------ INTEGRAL EVALUATION ----------------------------


 * One electron integrals 
 Pre-screening matrix                    ... done
 Shell pair data                         ... done (   0.000 sec)

-------------------------------------------------------------------------------
                                 ORCA SCF
-------------------------------------------------------------------------------

------------
SCF SETTINGS
------------
Hamiltonian:
 Density Functional     Method          .... DFT(GTOs)
 Exchange Functional    Exchange        .... B88
   X-Alpha parameter    XAlpha          ....  0.666667
   Becke's b parameter  XBeta           ....  0.004200
 Correlation Functional Correlation     .... LYP
 LDA part of GGA corr.  LDAOpt          .... VWN-5
 Gradients option       PostSCFGGA      .... off
 Hybrid DFT is turned on
   Fraction HF Exchange ScalHFX         ....  0.200000
   Scaling of DF-GGA-X  ScalDFX         ....  0.720000
   Scaling of DF-GGA-C  ScalDFC         ....  0.810000
   Scaling of DF-LDA-C  ScalLDAC        ....  1.000000
   Perturbative correction              ....  0.000000
   Density functional embedding theory  .... OFF
   NL short-range parameter             ....  4.800000


General Settings:
 Integral files         IntName         .... orca8
 Hartree-Fock type      HFTyp           .... UHF
 Total Charge           Charge          ....    0
 Multiplicity           Mult            ....    2
 Number of Electrons    NEL             ....   33
 Basis Dimension        Dim             ....   74
 Nuclear Repulsion      ENuc            ....    126.7989987919 Eh

Convergence Acceleration:
 DIIS                   CNVDIIS         .... on
   Start iteration      DIISMaxIt       ....    12
   Startup error        DIISStart       ....  0.200000
   # of expansion vecs  DIISMaxEq       ....     5
   Bias factor          DIISBfac        ....   1.050
   Max. coefficient     DIISMaxC        ....  10.000
 Newton-Raphson         CNVNR           .... off
 SOSCF                  CNVSOSCF        .... off
 Level Shifting         CNVShift        .... on
   Level shift para.    LevelShift      ....    0.2500
   Turn off err/grad.   ShiftErr        ....    0.0010
 Zerner damping         CNVZerner       .... off
 Static damping         CNVDamp         .... on
   Fraction old density DampFac         ....    0.7000
   Max. Damping (<1)    DampMax         ....    0.9800
   Min. Damping (>=0)   DampMin         ....    0.0000
   Turn off err/grad.   DampErr         ....    0.1000
 Fernandez-Rico         CNVRico         .... off

SCF Procedure:
 Maximum # iterations   MaxIter         ....   500
 SCF integral mode      SCFMode         .... Direct
   Integral package                     .... LIBINT
 Reset frequency        DirectResetFreq ....    20
 Integral Threshold     Thresh          ....  1.000e-12 Eh
 Primitive CutOff       TCut            ....  1.000e-14 Eh

Convergence Tolerance:
 Convergence Check Mode ConvCheckMode   .... Total+1el-Energy
 Convergence forced     ConvForced      .... 0
 Energy Change          TolE            ....  1.000e-09 Eh
 1-El. energy change                    ....  1.000e-06 Eh
 DIIS Error             TolErr          ....  1.000e-08


Diagonalization of the overlap matrix:
Smallest eigenvalue                        ... 1.788e-03
Time for diagonalization                   ...    0.001 sec
Threshold for overlap eigenvalues          ... 1.000e-08
Number of eigenvalues below threshold      ... 0
Time for construction of square roots      ...    6.651 sec
Total time needed                          ...    6.652 sec

-------------------
DFT GRID GENERATION
-------------------

General Integration Accuracy     IntAcc      ...  4.340
Radial Grid Type                 RadialGrid  ... Gauss-Chebyshev
Angular Grid (max. acc.)         AngularGrid ... Lebedev-110
Angular grid pruning method      GridPruning ... 3 (G Style)
Weight generation scheme         WeightScheme... Becke
Basis function cutoff            BFCut       ...    1.0000e-12
Integration weight cutoff        WCut        ...    1.0000e-14
Grids for H and He will be reduced by one unit

# of grid points (after initial pruning)     ...  13770 (   0.0 sec)
# of grid points (after weights+screening)   ...  12890 (   0.0 sec)
nearest neighbour list constructed           ...    0.0 sec
Grid point re-assignment to atoms done       ...    0.0 sec
Grid point division into batches done        ...    0.0 sec
Reduced shell lists constructed in    0.1 sec

Total number of grid points                  ...    12890
Total number of batches                      ...      208
Average number of points per batch           ...       61
Average number of grid points per atom       ...      992
Average number of shells per batch           ...    37.40 (89.04%)
Average number of basis functions per batch  ...    66.71 (90.15%)
Average number of large shells per batch     ...    32.78 (87.65%)
Average number of large basis fcns per batch ...    58.08 (87.07%)
Maximum spatial batch extension              ...  20.60, 21.33, 20.63 au
Average spatial batch extension              ...   4.18,  4.16,  4.00 au

Time for grid setup =    1.628 sec

------------------------------
INITIAL GUESS: MODEL POTENTIAL
------------------------------
Loading Hartree-Fock densities                     ... done
Calculating cut-offs                               ... done
Setting up the integral package                    ... done
Initializing the effective Hamiltonian             ... done
Starting the Coulomb interaction                   ... done (   0.0 sec)
Reading the grid                                   ... done
Mapping shells                                     ... done
Starting the XC term evaluation                    ... done (   0.1 sec)
  promolecular density results
     # of electrons  =     32.995893520
     EX              =    -23.180348559
     EC              =     -1.031554725
     EX+EC           =    -24.211903283
Transforming the Hamiltonian                       ... done (   1.1 sec)
Diagonalizing the Hamiltonian                      ... done (   0.0 sec)
Back transforming the eigenvectors                 ... done (   0.0 sec)
Now organizing SCF variables                       ... done
                      ------------------
                      INITIAL GUESS DONE (   2.9 sec)
                      ------------------
--------------
SCF ITERATIONS
--------------
ITER       Energy         Delta-E        Max-DP      RMS-DP      [F,P]     Damp
               ***  Starting incremental Fock matrix formation  ***
  0   -157.3557264718   0.000000000000 0.04231690  0.00208092  0.1677203 0.7000
  1   -157.4245776521  -0.068851180342 0.02599808  0.00149688  0.0862881 0.7000
                               ***Turning on DIIS***
  2   -157.4522210027  -0.027643350644 0.03605236  0.00251503  0.0312986 0.0000
  3   -157.4900736695  -0.037852666776 0.01785527  0.00104558  0.0481294 0.0000
  4   -157.5023831737  -0.012309504182 0.00544077  0.00032156  0.0093937 0.0000
  5   -157.5030147402  -0.000631566492 0.00181412  0.00011462  0.0022880 0.0000
  6   -157.5030676505  -0.000052910261 0.00156714  0.00007732  0.0007211 0.0000
  7   -157.5030789197  -0.000011269211 0.00045225  0.00001463  0.0001917 0.0000
  8   -157.5030799657  -0.000001045997 0.00014692  0.00000543  0.0000827 0.0000
  9   -157.5030801009  -0.000000135201 0.00006507  0.00000204  0.0000484 0.0000
 10   -157.5030801251  -0.000000024212 0.00002556  0.00000087  0.0000098 0.0000
 11   -157.5030801303  -0.000000005225 0.00001196  0.00000048  0.0000031 0.0000
 12   -157.5030801316  -0.000000001275 0.00000344  0.00000013  0.0000017 0.0000
 13   -157.5030801317  -0.000000000144 0.00000332  0.00000013  0.0000009 0.0000
 14   -157.5030801318  -0.000000000086 0.00000107  0.00000004  0.0000004 0.0000
 15   -157.5030801318  -0.000000000008 0.00000068  0.00000003  0.0000001 0.0000
 16   -157.5030801318   0.000000000003 0.00000013  0.00000001  0.0000001 0.0000
                 **** Energy Check signals convergence ****

 Fermi smearing  (ALPHA): E(HOMO(Eh)) = -0.322374 MUE = -0.090391 gap=   7.784 eV
 Fermi smearing   (BETA): E(HOMO(Eh)) = -0.315592 MUE = -0.190461 gap=   6.735 eV

N_FOD(alpha) =  0.000000
 N_FOD(beta) =  0.000000
       N_FOD =  0.000000

               *****************************************************
               *                     SUCCESS                       *
               *           SCF CONVERGED AFTER  17 CYCLES          *
               *****************************************************

Setting up the final grid:

General Integration Accuracy     IntAcc      ...  4.670
Radial Grid Type                 RadialGrid  ... Gauss-Chebyshev
Angular Grid (max. acc.)         AngularGrid ... Lebedev-302
Angular grid pruning method      GridPruning ... 3 (G Style)
Weight generation scheme         WeightScheme... Becke
Basis function cutoff            BFCut       ...    1.0000e-12
Integration weight cutoff        WCut        ...    1.0000e-14
Grids for H and He will be reduced by one unit

# of grid points (after initial pruning)     ...  55394 (   0.0 sec)
# of grid points (after weights+screening)   ...  51222 (   0.1 sec)
nearest neighbour list constructed           ...    0.0 sec
Grid point re-assignment to atoms done       ...    0.0 sec
Grid point division into batches done        ...    0.2 sec
Reduced shell lists constructed in    0.3 sec

Total number of grid points                  ...    51222
Total number of batches                      ...      806
Average number of points per batch           ...       63
Average number of grid points per atom       ...     3940
Average number of shells per batch           ...    34.94 (83.19%)
Average number of basis functions per batch  ...    62.11 (83.93%)
Average number of large shells per batch     ...    29.95 (85.71%)
Average number of large basis fcns per batch ...    52.77 (84.97%)
Maximum spatial batch extension              ...  18.59, 17.30, 20.74 au
Average spatial batch extension              ...   2.61,  2.65,  2.61 au

Final grid set up in    1.8 sec
Final integration                            ... done (  17.8 sec)
Change in XC energy                          ...    -0.000086866
Integrated number of electrons               ...    33.000060526
Previous integrated no of electrons          ...    33.000416485

----------------
TOTAL SCF ENERGY
----------------

Total Energy       :         -157.50316700 Eh           -4285.87906 eV

Components:
Nuclear Repulsion  :          126.79899879 Eh            3450.37617 eV
Electronic Energy  :         -284.30216579 Eh           -7736.25523 eV
One Electron Energy:         -461.12681429 Eh          -12547.89854 eV
Two Electron Energy:          176.82464850 Eh            4811.64330 eV

Virial components:
Potential Energy   :         -313.35793886 Eh           -8526.90302 eV
Kinetic Energy     :          155.85477186 Eh            4241.02395 eV
Virial Ratio       :            2.01057648


DFT components:
N(Alpha)           :       17.000025871768 electrons
N(Beta)            :       16.000034653893 electrons
N(Total)           :       33.000060525661 electrons
E(X)               :      -18.877722525391 Eh       
E(C)               :       -1.220244692419 Eh       
E(XC)              :      -20.097967217810 Eh       
DFET-embed. en.    :        0.000000000000 Eh       

---------------
SCF CONVERGENCE
---------------

  Last Energy change         ...   -3.9790e-12  Tolerance :   1.0000e-09
  Last MAX-Density change    ...    1.0081e-07  Tolerance :   1.0000e-08
  Last RMS-Density change    ...    4.4479e-09  Tolerance :   1.0000e-09
  Last DIIS Error            ...    2.6078e-08  Tolerance :   1.0000e-08

             **** THE GBW FILE WAS UPDATED (orca8.gbw) ****
             **** DENSITY FILE WAS UPDATED (orca8.scfp) ****
             **** ENERGY FILE WAS UPDATED (orca8.en.tmp) ****
             **** THE GBW FILE WAS UPDATED (orca8.gbw) ****
             **** DENSITY FILE WAS UPDATED (orca8.scfp) ****
----------------
ORBITAL ENERGIES
----------------
                 SPIN UP ORBITALS
  NO   OCC          E(Eh)            E(eV) 
   0   1.0000     -10.189670      -277.2750 
   1   1.0000     -10.182373      -277.0765 
   2   1.0000     -10.167578      -276.6739 
   3   1.0000     -10.167305      -276.6664 
   4   1.0000      -0.802714       -21.8429 
   5   1.0000      -0.675284       -18.3754 
   6   1.0000      -0.661167       -17.9913 
   7   1.0000      -0.542905       -14.7732 
   8   1.0000      -0.465407       -12.6644 
   9   1.0000      -0.433410       -11.7937 
  10   1.0000      -0.422780       -11.5044 
  11   1.0000      -0.388310       -10.5665 
  12   1.0000      -0.376848       -10.2546 
  13   1.0000      -0.333131        -9.0650 
  14   1.0000      -0.325057        -8.8452 
  15   1.0000      -0.322374        -8.7723 
  16   1.0000      -0.233411        -6.3514 
  17   0.0000       0.052630         1.4321 
  18   0.0000       0.085651         2.3307 
  19   0.0000       0.107589         2.9276 
  20   0.0000       0.110900         3.0178 
  21   0.0000       0.121431         3.3043 
  22   0.0000       0.132684         3.6105 
  23   0.0000       0.147623         4.0170 
  24   0.0000       0.158350         4.3089 
  25   0.0000       0.178271         4.8510 
  26   0.0000       0.233337         6.3494 
  27   0.0000       0.238381         6.4867 
  28   0.0000       0.291660         7.9365 
  29   0.0000       0.409065        11.1312 
  30   0.0000       0.424904        11.5622 
  31   0.0000       0.441133        12.0038 
  32   0.0000       0.496422        13.5083 
  33   0.0000       0.503339        13.6965 
  34   0.0000       0.544009        14.8032 
  35   0.0000       0.568974        15.4826 
  36   0.0000       0.597761        16.2659 
  37   0.0000       0.620720        16.8906 
  38   0.0000       0.641289        17.4504 
  39   0.0000       0.651087        17.7170 
  40   0.0000       0.670053        18.2331 
  41   0.0000       0.675925        18.3928 
  42   0.0000       0.691627        18.8201 
  43   0.0000       0.705656        19.2019 
  44   0.0000       0.708002        19.2657 
  45   0.0000       0.716001        19.4834 
  46   0.0000       0.724020        19.7016 
  47   0.0000       0.730473        19.8772 
  48   0.0000       0.743058        20.2196 
  49   0.0000       0.747329        20.3359 
  50   0.0000       0.793692        21.5975 
  51   0.0000       0.882336        24.0096 
  52   0.0000       0.956804        26.0360 
  53   0.0000       1.110666        30.2228 
  54   0.0000       1.387664        37.7603 
  55   0.0000       1.403587        38.1935 
  56   0.0000       1.757341        47.8197 
  57   0.0000       1.782460        48.5032 
  58   0.0000       1.798276        48.9336 
  59   0.0000       1.830589        49.8129 
  60   0.0000       1.892409        51.4951 
  61   0.0000       1.966344        53.5069 
  62   0.0000       1.982426        53.9446 
  63   0.0000       1.992009        54.2053 
  64   0.0000       2.071105        56.3576 
  65   0.0000       2.097121        57.0656 
  66   0.0000       2.122906        57.7672 
  67   0.0000       2.166422        58.9513 
  68   0.0000       2.201167        59.8968 
  69   0.0000       2.415263        65.7227 
  70   0.0000       2.453755        66.7701 
  71   0.0000       2.473663        67.3118 
  72   0.0000       2.687196        73.1223 
  73   0.0000       2.709719        73.7352 

                 SPIN DOWN ORBITALS
  NO   OCC          E(Eh)            E(eV) 
   0   1.0000     -10.182792      -277.0878 
   1   1.0000     -10.174331      -276.8576 
   2   1.0000     -10.167199      -276.6635 
   3   1.0000     -10.166639      -276.6483 
   4   1.0000      -0.796164       -21.6647 
   5   1.0000      -0.673699       -18.3323 
   6   1.0000      -0.640588       -17.4313 
   7   1.0000      -0.534377       -14.5411 
   8   1.0000      -0.461218       -12.5504 
   9   1.0000      -0.426549       -11.6070 
  10   1.0000      -0.419367       -11.4116 
  11   1.0000      -0.387217       -10.5367 
  12   1.0000      -0.369313       -10.0495 
  13   1.0000      -0.331218        -9.0129 
  14   1.0000      -0.320495        -8.7211 
  15   1.0000      -0.315592        -8.5877 
  16   0.0000      -0.068090        -1.8528 
  17   0.0000       0.055507         1.5104 
  18   0.0000       0.088085         2.3969 
  19   0.0000       0.110479         3.0063 
  20   0.0000       0.113427         3.0865 
  21   0.0000       0.124741         3.3944 
  22   0.0000       0.134992         3.6733 
  23   0.0000       0.149721         4.0741 
  24   0.0000       0.160646         4.3714 
  25   0.0000       0.182375         4.9627 
  26   0.0000       0.235847         6.4177 
  27   0.0000       0.246157         6.6983 
  28   0.0000       0.295663         8.0454 
  29   0.0000       0.415821        11.3151 
  30   0.0000       0.427339        11.6285 
  31   0.0000       0.443782        12.0759 
  32   0.0000       0.506317        13.7776 
  33   0.0000       0.526915        14.3381 
  34   0.0000       0.570052        15.5119 
  35   0.0000       0.580563        15.7979 
  36   0.0000       0.606694        16.5090 
  37   0.0000       0.632339        17.2068 
  38   0.0000       0.648662        17.6510 
  39   0.0000       0.659327        17.9412 
  40   0.0000       0.673892        18.3375 
  41   0.0000       0.683565        18.6008 
  42   0.0000       0.697361        18.9762 
  43   0.0000       0.708147        19.2697 
  44   0.0000       0.709597        19.3091 
  45   0.0000       0.719273        19.5724 
  46   0.0000       0.727019        19.7832 
  47   0.0000       0.733962        19.9721 
  48   0.0000       0.747485        20.3401 
  49   0.0000       0.753631        20.5074 
  50   0.0000       0.796675        21.6786 
  51   0.0000       0.889752        24.2114 
  52   0.0000       0.958066        26.0703 
  53   0.0000       1.114280        30.3211 
  54   0.0000       1.398844        38.0645 
  55   0.0000       1.410516        38.3821 
  56   0.0000       1.766934        48.0807 
  57   0.0000       1.799308        48.9616 
  58   0.0000       1.814686        49.3801 
  59   0.0000       1.862206        50.6732 
  60   0.0000       1.915891        52.1340 
  61   0.0000       1.977034        53.7978 
  62   0.0000       1.986455        54.0542 
  63   0.0000       2.015794        54.8525 
  64   0.0000       2.078622        56.5622 
  65   0.0000       2.116502        57.5929 
  66   0.0000       2.145341        58.3777 
  67   0.0000       2.172084        59.1054 
  68   0.0000       2.209196        60.1153 
  69   0.0000       2.422045        65.9072 
  70   0.0000       2.459208        66.9184 
  71   0.0000       2.483208        67.5715 
  72   0.0000       2.690844        73.2216 
  73   0.0000       2.718215        73.9664 

                    ********************************
                    * MULLIKEN POPULATION ANALYSIS *
                    ********************************

------------------------------------------
FOD BASED MULLIKEN REDUCED ORBITAL CHARGES
------------------------------------------
  0 C s       :     0.000000  s :     0.000000
      pz      :     0.000000  p :     0.000000
      px      :     0.000000
      py      :     0.000000
      dz2     :     0.000000  d :     0.000000
      dxz     :     0.000000
      dyz     :     0.000000
      dx2y2   :     0.000000
      dxy     :     0.000000
  1 C s       :     0.000000  s :     0.000000
      pz      :     0.000000  p :     0.000000
      px      :     0.000000
      py      :     0.000000
      dz2     :     0.000000  d :     0.000000
      dxz     :     0.000000
      dyz     :     0.000000
      dx2y2   :     0.000000
      dxy     :     0.000000
  2 C s       :    -0.000000  s :    -0.000000
      pz      :     0.000000  p :     0.000000
      px      :     0.000000
      py      :     0.000000
      dz2     :     0.000000  d :     0.000000
      dxz     :     0.000000
      dyz     :     0.000000
      dx2y2   :     0.000000
      dxy     :     0.000000
  3 C s       :    -0.000000  s :    -0.000000
      pz      :     0.000000  p :     0.000000
      px      :     0.000000
      py      :     0.000000
      dz2     :     0.000000  d :     0.000000
      dxz     :     0.000000
      dyz     :     0.000000
      dx2y2   :     0.000000
      dxy     :     0.000000
  4 H s       :     0.000000  s :     0.000000
  5 H s       :     0.000000  s :     0.000000
  6 H s       :     0.000000  s :     0.000000
  7 H s       :     0.000000  s :     0.000000
  8 H s       :     0.000000  s :     0.000000
  9 H s       :     0.000000  s :     0.000000
 10 H s       :     0.000000  s :     0.000000
 11 H s       :     0.000000  s :     0.000000
 12 H s       :     0.000000  s :     0.000000


                     *******************************
                     * LOEWDIN POPULATION ANALYSIS *
                     *******************************

-------------------------------------------
LOEWDIN ATOMIC CHARGES AND SPIN POPULATIONS
-------------------------------------------
   0 C :   -0.177300   -0.003054
   1 C :   -0.204378    0.956892
   2 C :   -0.307850    0.005757
   3 C :   -0.307498    0.029184
   4 H :    0.115105    0.030233
   5 H :    0.110575   -0.013194
   6 H :    0.107190   -0.010510
   7 H :    0.104467   -0.000122
   8 H :    0.111369    0.000076
   9 H :    0.110075    0.000718
  10 H :    0.111323    0.001310
  11 H :    0.112685    0.001900
  12 H :    0.114238    0.000811

----------------------------------------------------
LOEWDIN REDUCED ORBITAL CHARGES AND SPIN POPULATIONS
----------------------------------------------------
CHARGE
  0 C s       :     2.870620  s :     2.870620
      pz      :     1.066081  p :     3.192896
      px      :     1.061443
      py      :     1.065372
      dz2     :     0.029451  d :     0.113784
      dxz     :     0.013467
      dyz     :     0.015683
      dx2y2   :     0.026617
      dxy     :     0.028566
  1 C s       :     3.058144  s :     3.058144
      pz      :     1.003655  p :     3.086326
      px      :     1.045358
      py      :     1.037313
      dz2     :     0.011450  d :     0.059909
      dxz     :     0.015074
      dyz     :     0.002355
      dx2y2   :     0.020994
      dxy     :     0.010035
  2 C s       :     2.955295  s :     2.955295
      pz      :     1.106989  p :     3.276016
      px      :     1.083276
      py      :     1.085751
      dz2     :     0.023420  d :     0.076539
      dxz     :     0.010008
      dyz     :     0.008623
      dx2y2   :     0.022265
      dxy     :     0.012224
  3 C s       :     2.956403  s :     2.956403
      pz      :     1.102515  p :     3.277249
      px      :     1.112501
      py      :     1.062233
      dz2     :     0.011052  d :     0.073845
      dxz     :     0.013657
      dyz     :     0.019366
      dx2y2   :     0.019371
      dxy     :     0.010399
  4 H s       :     0.884895  s :     0.884895
  5 H s       :     0.889425  s :     0.889425
  6 H s       :     0.892810  s :     0.892810
  7 H s       :     0.895533  s :     0.895533
  8 H s       :     0.888631  s :     0.888631
  9 H s       :     0.889925  s :     0.889925
 10 H s       :     0.888677  s :     0.888677
 11 H s       :     0.887315  s :     0.887315
 12 H s       :     0.885762  s :     0.885762

SPIN
  0 C s       :    -0.002019  s :    -0.002019
      pz      :    -0.002357  p :    -0.012379
      px      :    -0.005233
      py      :    -0.004789
      dz2     :     0.002042  d :     0.011344
      dxz     :     0.003462
      dyz     :     0.001867
      dx2y2   :     0.002533
      dxy     :     0.001439
  1 C s       :     0.101907  s :     0.101907
      pz      :     0.500700  p :     0.858964
      px      :     0.185997
      py      :     0.172266
      dz2     :    -0.001215  d :    -0.003979
      dxz     :    -0.001070
      dyz     :    -0.000458
      dx2y2   :    -0.000976
      dxy     :    -0.000261
  2 C s       :     0.000380  s :     0.000380
      pz      :     0.001829  p :     0.005322
      px      :     0.002238
      py      :     0.001255
      dz2     :     0.000138  d :     0.000054
      dxz     :    -0.000114
      dyz     :     0.000047
      dx2y2   :    -0.000019
      dxy     :     0.000003
  3 C s       :     0.010771  s :     0.010771
      pz      :     0.001899  p :     0.018658
      px      :     0.006991
      py      :     0.009767
      dz2     :     0.000017  d :    -0.000244
      dxz     :    -0.000106
      dyz     :    -0.000072
      dx2y2   :     0.000025
      dxy     :    -0.000108
  4 H s       :     0.030233  s :     0.030233
  5 H s       :    -0.013194  s :    -0.013194
  6 H s       :    -0.010510  s :    -0.010510
  7 H s       :    -0.000122  s :    -0.000122
  8 H s       :     0.000076  s :     0.000076
  9 H s       :     0.000718  s :     0.000718
 10 H s       :     0.001310  s :     0.001310
 11 H s       :     0.001900  s :     0.001900
 12 H s       :     0.000811  s :     0.000811


                      *****************************
                      * MAYER POPULATION ANALYSIS *
                      *****************************

  NA   - Mulliken gross atomic population
  ZA   - Total nuclear charge
  QA   - Mulliken gross atomic charge
  VA   - Mayer's total valence
  BVA  - Mayer's bonded valence
  FA   - Mayer's free valence

  ATOM       NA         ZA         QA         VA         BVA        FA
  0 C      6.1403     6.0000    -0.1403     4.2338     4.2309     0.0029
  1 C      6.1901     6.0000    -0.1901     3.8787     3.0183     0.8604
  2 C      6.2520     6.0000    -0.2520     3.9833     3.9832     0.0000
  3 C      6.2292     6.0000    -0.2292     3.9287     3.9282     0.0005
  4 H      0.9233     1.0000     0.0767     0.9378     0.9367     0.0012
  5 H      0.9049     1.0000     0.0951     0.9478     0.9465     0.0013
  6 H      0.9069     1.0000     0.0931     0.9631     0.9619     0.0012
  7 H      0.9186     1.0000     0.0814     0.9563     0.9563     0.0000
  8 H      0.9021     1.0000     0.0979     0.9578     0.9578     0.0000
  9 H      0.9084     1.0000     0.0916     0.9529     0.9529     0.0000
 10 H      0.9117     1.0000     0.0883     0.9542     0.9542     0.0000
 11 H      0.9087     1.0000     0.0913     0.9660     0.9660     0.0000
 12 H      0.9038     1.0000     0.0962     0.9672     0.9672     0.0000

  Mayer bond orders larger than 0.100000
B(  0-C ,  1-C ) :   1.0949 B(  0-C ,  2-C ) :   1.1265 B(  0-C ,  3-C ) :   1.0716 
B(  0-C ,  4-H ) :   0.9129 B(  1-C ,  5-H ) :   0.9429 B(  1-C ,  6-H ) :   0.9488 
B(  2-C ,  7-H ) :   0.9530 B(  2-C ,  8-H ) :   0.9528 B(  2-C ,  9-H ) :   0.9549 
B(  3-C , 10-H ) :   0.9567 B(  3-C , 11-H ) :   0.9626 B(  3-C , 12-H ) :   0.9587 


-------
TIMINGS
-------

Total SCF time: 0 days 0 hours 8 min 43 sec 

Total time                  ....     523.176 sec
Sum of individual times     ....     407.871 sec  ( 78.0%)

Fock matrix formation       ....     338.215 sec  ( 64.6%)
  XC integration            ....     168.967 sec  ( 50.0% of F)
    Basis function eval.    ....       0.834 sec  (  0.5% of XC)
    Density eval.           ....       0.581 sec  (  0.3% of XC)
    XC-Functional eval.     ....       0.360 sec  (  0.2% of XC)
    XC-Potential eval.      ....       0.874 sec  (  0.5% of XC)
Diagonalization             ....      19.914 sec  (  3.8%)
Density matrix formation    ....      21.567 sec  (  4.1%)
Population analysis         ....      12.850 sec  (  2.5%)
Initial guess               ....       1.267 sec  (  0.2%)
Orbital Transformation      ....       0.000 sec  (  0.0%)
Orbital Orthonormalization  ....       0.000 sec  (  0.0%)
DIIS solution               ....      10.616 sec  (  2.0%)
Grid generation             ....       3.441 sec  (  0.7%)


-------------------------------------------------------------------------------
                          DFT DISPERSION CORRECTION                            
                                                                               
                              DFTD3 V3.1  Rev 1                                
                          USING Becke-Johnson damping                          
-------------------------------------------------------------------------------
The B3LYP functional is recognized
Active option DFTDOPT                   ...         4   

molecular C6(AA) [au] = 1132.426992 


            DFT-D V3
 parameters
 s6 scaling factor         :     1.0000 
 a1 scaling factor         :     0.3981 
 s8 scaling factor         :     1.9889 
 a2 scaling factor         :     4.4211 
 ad hoc parameters k1-k3   :    16.0000     1.3333    -4.0000 

 Edisp/kcal,au: -9.102722359512  -0.014506109891 
 E6   /kcal   :  -4.513084569 
 E8   /kcal   :  -4.589637790 
 % E8         :  50.420496295 

-------------------------   ----------------
Dispersion correction           -0.014506110
-------------------------   ----------------


-------------------------   --------------------
FINAL SINGLE POINT ENERGY      -157.517673108129
-------------------------   --------------------

------------------------------------------------------------------------------
                         ORCA SCF GRADIENT CALCULATION
------------------------------------------------------------------------------

Gradient of the Kohn-Sham DFT energy:
Kohn-Sham wavefunction type      ... UKS
Hartree-Fock exchange scaling    ...    0.200
Number of operators              ...    2
Number of atoms                  ...   13
Basis set dimensions             ...   74
Integral neglect threshold       ... 1.0e-12
Integral primitive cutoff        ... 1.0e-14

Nuclear repulsion gradient       ... done
One Electron Gradient            ... done
Pre-screening matrix             ... done
Starting the two electron gradient:
Two electron gradient done
Exchange-correlation gradient    ... done
Dispersion correction            ... done

------------------
CARTESIAN GRADIENT
------------------

   1   C   :   -0.001654406    0.003454860   -0.001020989
   2   C   :    0.017087526    0.018646804   -0.042672270
   3   C   :    0.011364908    0.027323135   -0.006837664
   4   C   :   -0.016121620   -0.032589175    0.000163055
   5   H   :   -0.005254580    0.002397438    0.005462840
   6   H   :   -0.011508479   -0.000697259    0.019118257
   7   H   :   -0.015691690   -0.005923856    0.008548879
   8   H   :    0.006681498   -0.004290136    0.003418140
   9   H   :    0.001566695   -0.004250932   -0.000447103
  10   H   :   -0.000449525   -0.004112352    0.006247287
  11   H   :    0.005210396    0.004668614    0.010564149
  12   H   :    0.009679782   -0.002742934    0.002425622
  13   H   :   -0.000910505   -0.001884205   -0.004970204

Difference to translation invariance:
           :    0.0000000000   -0.0000000000    0.0000000000

Norm of the cartesian gradient     ...    0.0780074163
RMS gradient                       ...    0.0124911835
MAX gradient                       ...    0.0426722701

-------
TIMINGS
-------

Total SCF gradient time            ...        4.179 sec

One electron gradient       ....       0.029 sec  (  0.7%)
Prescreening matrices       ....       0.027 sec  (  0.6%)
Two electron gradient       ....       1.324 sec  ( 31.7%)
XC gradient                 ....       2.375 sec  ( 56.8%)
------------------------------------------------------------------------------
                         ORCA GEOMETRY RELAXATION STEP
------------------------------------------------------------------------------

Reading the OPT-File                    .... done
Getting information on internals        .... done
Copying old internal coords+grads       .... done
Making the new internal coordinates     .... (new redundants).... done
Validating the new internal coordinates .... (new redundants).... done
Calculating the B-matrix                .... done
Calculating the G,G- and P matrices     .... done
Transforming gradient to internals      .... done
Projecting the internal gradient        .... done
Number of atoms                         ....  13
Number of internal coordinates          ....  57
Current Energy                          ....  -157.517673108 Eh
Current gradient norm                   ....     0.078007416 Eh/bohr
Maximum allowed component of the step   ....  0.300
Current trust radius                    ....  0.300
Evaluating the initial hessian          ....  (Almloef) done
Projecting the Hessian                  .... done
Forming the augmented Hessian           .... done
Diagonalizing the augmented Hessian     .... done
Last element of RFO vector              ....  0.936169623
Lowest eigenvalues of augmented Hessian:
 -0.021072745  0.011627320  0.013186885  0.013786684  0.070459510
Length of the computed step             ....  0.375518087
Warning: the length of the step is outside the trust region - taking restricted step instead
The input lambda is                     ....    -0.021073
   iter:   1  x=   -0.037471  g=    3.111017 f(x)=     0.051014
   iter:   2  x=   -0.046149  g=    1.642616 f(x)=     0.014255
   iter:   3  x=   -0.047463  g=    1.279771 f(x)=     0.001681
   iter:   4  x=   -0.047486  g=    1.236220 f(x)=     0.000029
   iter:   5  x=   -0.047486  g=    1.235467 f(x)=     0.000000
   iter:   6  x=   -0.047486  g=    1.235467 f(x)=     0.000000
The output lambda is                    ....    -0.047486 (6 iterations)
The final length of the internal step   ....  0.300000000
Converting the step to cartesian space:
 Initial RMS(Int)=    0.0397359707
Transforming coordinates:
 Iter   0:  RMS(Cart)=    0.0728667246 RMS(Int)=    0.0403686212
 Iter   1:  RMS(Cart)=    0.0043151046 RMS(Int)=    0.0032651403
 Iter   2:  RMS(Cart)=    0.0002972513 RMS(Int)=    0.0002835385
 Iter   3:  RMS(Cart)=    0.0000433219 RMS(Int)=    0.0000297706
 Iter   4:  RMS(Cart)=    0.0000044001 RMS(Int)=    0.0000039191
 Iter   5:  RMS(Cart)=    0.0000003978 RMS(Int)=    0.0000002900
 Iter   6:  RMS(Cart)=    0.0000000580 RMS(Int)=    0.0000000449
done
Storing new coordinates                 .... done

                                .--------------------.
          ----------------------|Geometry convergence|-------------------------
          Item                value                   Tolerance       Converged
          ---------------------------------------------------------------------
          RMS gradient        0.0094430329            0.0001000000      NO
          MAX gradient        0.0330671225            0.0003000000      NO
          RMS step            0.0397359707            0.0020000000      NO
          MAX step            0.1054003577            0.0040000000      NO
          ........................................................
          Max(Bonds)      0.0385      Max(Angles)    6.04
          Max(Dihed)        5.99      Max(Improp)    0.00
          ---------------------------------------------------------------------

The optimization has not yet converged - more geometry cycles are needed


    ---------------------------------------------------------------------------
                         Redundant Internal Coordinates
                            (Angstroem and degrees)

        Definition                    Value    dE/dq     Step     New-Value
    ----------------------------------------------------------------------------
     1. B(C   1,C   0)                1.5164 -0.012013  0.0144    1.5309   
     2. B(C   2,C   0)                1.5030 -0.023456  0.0270    1.5299   
     3. B(C   3,C   0)                1.5069 -0.033067  0.0385    1.5454   
     4. B(H   4,C   0)                1.1200  0.006405 -0.0092    1.1109   
     5. B(H   5,C   1)                1.1193  0.009468 -0.0135    1.1058   
     6. B(H   6,C   1)                1.1123  0.006205 -0.0087    1.1037   
     7. B(H   7,C   2)                1.1191  0.006376 -0.0091    1.1100   
     8. B(H   8,C   2)                1.1067  0.000728 -0.0010    1.1057   
     9. B(H   9,C   2)                1.1082  0.001740 -0.0024    1.1058   
    10. B(H  10,C   3)                1.1197  0.008920 -0.0127    1.1070   
    11. B(H  11,C   3)                1.1196  0.007881 -0.0113    1.1083   
    12. B(H  12,C   3)                1.1101  0.004533 -0.0063    1.1038   
    13. A(C   1,C   0,H   4)          108.88  0.003869   -1.02    107.86   
    14. A(C   2,C   0,H   4)          106.53 -0.000585   -0.05    106.48   
    15. A(C   1,C   0,C   2)          109.66 -0.006408    1.55    111.21   
    16. A(C   1,C   0,C   3)          110.62 -0.001261    0.45    111.08   
    17. A(C   2,C   0,C   3)          113.10  0.005279   -0.64    112.46   
    18. A(C   3,C   0,H   4)          107.87 -0.000677   -0.40    107.47   
    19. A(H   5,C   1,H   6)          112.23  0.011231    1.49    113.72   
    20. A(C   0,C   1,H   6)          109.25 -0.027084    5.68    114.93   
    21. A(C   0,C   1,H   5)          107.48 -0.028929    6.04    113.52   
    22. A(H   7,C   2,H   9)          105.15  0.001587    0.34    105.49   
    23. A(C   0,C   2,H   9)          113.36  0.001497   -0.49    112.87   
    24. A(H   7,C   2,H   8)          105.80  0.000816    0.42    106.22   
    25. A(C   0,C   2,H   8)          113.63  0.004158   -0.91    112.71   
    26. A(H   8,C   2,H   9)          111.36  0.001579   -1.15    110.21   
    27. A(C   0,C   2,H   7)          106.76 -0.010621    2.17    108.94   
    28. A(H  11,C   3,H  12)          107.73  0.004207   -0.57    107.16   
    29. A(H  10,C   3,H  12)          111.78  0.005387   -1.63    110.15   
    30. A(C   0,C   3,H  12)          113.17  0.001877   -0.59    112.58   
    31. A(H  10,C   3,H  11)          104.14  0.001803    0.52    104.66   
    32. A(C   0,C   3,H  11)          107.65 -0.010173    2.01    109.66   
    33. A(C   0,C   3,H  10)          111.79 -0.003512    0.49    112.28   
    34. D(H   6,C   1,C   0,C   3)   -140.88 -0.009024    2.84   -138.04   
    35. D(H   6,C   1,C   0,H   4)    100.74 -0.009820    3.68    104.42   
    36. D(H   6,C   1,C   0,C   2)    -15.45 -0.007742    3.45    -12.00   
    37. D(H   5,C   1,C   0,H   4)    -21.27  0.010149   -5.15    -26.42   
    38. D(H   5,C   1,C   0,C   2)   -137.47  0.012228   -5.38   -142.85   
    39. D(H   5,C   1,C   0,C   3)     97.10  0.010945   -5.99     91.11   
    40. D(H   7,C   2,C   0,C   1)     46.48  0.000325    0.33     46.81   
    41. D(H   9,C   2,C   0,C   1)    161.78 -0.003529    1.83    163.60   
    42. D(H   8,C   2,C   0,H   4)    172.56  0.002886   -0.64    171.92   
    43. D(H   8,C   2,C   0,C   1)    -69.77  0.003790   -1.06    -70.82   
    44. D(H   7,C   2,C   0,H   4)    -71.20 -0.000579    0.75    -70.44   
    45. D(H   7,C   2,C   0,C   3)    170.47 -0.002366    1.64    172.10   
    46. D(H   9,C   2,C   0,C   3)    -74.23 -0.006220    3.13    -71.10   
    47. D(H   9,C   2,C   0,H   4)     44.10 -0.004433    2.25     46.35   
    48. D(H   8,C   2,C   0,C   3)     54.23  0.001100    0.25     54.47   
    49. D(H  12,C   3,C   0,H   4)   -134.17 -0.000831   -0.03   -134.20   
    50. D(H  12,C   3,C   0,C   1)    106.84 -0.004390    1.19    108.03   
    51. D(H  11,C   3,C   0,H   4)    106.90 -0.000421   -0.29    106.60   
    52. D(H  11,C   3,C   0,C   2)   -135.56  0.001512   -0.99   -136.54   
    53. D(H  11,C   3,C   0,C   1)    -12.09 -0.003979    0.92    -11.17   
    54. D(H  10,C   3,C   0,H   4)     -6.89  0.005131   -2.33     -9.22   
    55. D(H  12,C   3,C   0,C   2)    -16.62  0.001101   -0.72    -17.34   
    56. D(H  10,C   3,C   0,C   2)    110.66  0.007064   -3.03    107.63   
    57. D(H  10,C   3,C   0,C   1)   -125.88  0.001573   -1.12   -126.99   
    ----------------------------------------------------------------------------

Time needed for optimization step       :     2.42 sec

         *************************************************************
         *                GEOMETRY OPTIMIZATION CYCLE   2            *
         *************************************************************
---------------------------------
CARTESIAN COORDINATES (ANGSTROEM)
---------------------------------
  C     -0.080265    0.036042    0.390870
  C      1.280696   -0.639122    0.202354
  C     -1.213146   -0.843352   -0.142017
  C     -0.089432    1.451005   -0.230432
  H     -0.256084    0.149667    1.481830
  H      1.977434   -0.452950    1.040599
  H      1.228368   -1.703604   -0.084371
  H     -1.069166   -1.879875    0.228177
  H     -1.220101   -0.907736   -1.245832
  H     -2.207882   -0.533181    0.228284
  H     -0.423585    2.222840    0.489288
  H      0.944487    1.746977   -0.498326
  H     -0.693028    1.504761   -1.153032

----------------------------
CARTESIAN COORDINATES (A.U.)
----------------------------
  NO LB      ZA    FRAG     MASS         X           Y           Z
   0 C     6.0000    0    12.011   -0.151679    0.068110    0.738637
   1 C     6.0000    0    12.011    2.420165   -1.207765    0.382394
   2 C     6.0000    0    12.011   -2.292513   -1.593704   -0.268373
   3 C     6.0000    0    12.011   -0.169003    2.742003   -0.435454
   4 H     1.0000    0     1.008   -0.483928    0.282831    2.800254
   5 H     1.0000    0     1.008    3.736808   -0.855951    1.966447
   6 H     1.0000    0     1.008    2.321278   -3.219346   -0.159439
   7 H     1.0000    0     1.008   -2.020432   -3.552448    0.431192
   8 H     1.0000    0     1.008   -2.305657   -1.715372   -2.354282
   9 H     1.0000    0     1.008   -4.172293   -1.007566    0.431394
  10 H     1.0000    0     1.008   -0.800460    4.200559    0.924620
  11 H     1.0000    0     1.008    1.784822    3.301308   -0.941700
  12 H     1.0000    0     1.008   -1.309633    2.843586   -2.178915

--------------------------------
INTERNAL COORDINATES (ANGSTROEM)
--------------------------------
 C      0   0   0     0.000000000000     0.00000000     0.00000000
 C      1   0   0     1.530881888011     0.00000000     0.00000000
 C      1   2   0     1.529941481652   111.21655145     0.00000000
 C      1   2   3     1.545387032836   111.07406743   233.94403654
 H      1   2   3     1.110863506674   107.86354679   116.41140357
 H      2   1   3     1.105783936663   113.11309844   216.93729715
 H      2   1   3     1.103663707942   114.53276802   348.23401494
 H      3   1   2     1.110023846699   108.93672683    46.80866041
 H      3   1   2     1.105713223060   112.69557724   289.18681261
 H      3   1   2     1.105816395035   112.84464881   163.60029020
 H      4   1   2     1.106970606528   112.25951766   232.99951949
 H      4   1   2     1.108312134077   109.64267392   348.83866535
 H      4   1   2     1.103815128895   112.57342979   108.02776682

---------------------------
INTERNAL COORDINATES (A.U.)
---------------------------
 C      0   0   0     0.000000000000     0.00000000     0.00000000
 C      1   0   0     2.892947511720     0.00000000     0.00000000
 C      1   2   0     2.891170401248   111.21655145     0.00000000
 C      1   2   3     2.920358262974   111.07406743   233.94403654
 H      1   2   3     2.099227799782   107.86354679   116.41140357
 H      2   1   3     2.089628803582   113.11309844   216.93729715
 H      2   1   3     2.085622151958   114.53276802   348.23401494
 H      3   1   2     2.097641072382   108.93672683    46.80866041
 H      3   1   2     2.089495174238   112.69557724   289.18681261
 H      3   1   2     2.089690141017   112.84464881   163.60029020
 H      4   1   2     2.091871284638   112.25951766   232.99951949
 H      4   1   2     2.094406404307   109.64267392   348.83866535
 H      4   1   2     2.085908296091   112.57342979   108.02776682


Diagonalization of the overlap matrix:
Smallest eigenvalue                        ... 2.139e-03
Time for diagonalization                   ...    0.001 sec
Threshold for overlap eigenvalues          ... 1.000e-08
Number of eigenvalues below threshold      ... 0
Time for construction of square roots      ...    0.823 sec
Total time needed                          ...    0.824 sec

-------------------
DFT GRID GENERATION
-------------------

General Integration Accuracy     IntAcc      ...  4.340
Radial Grid Type                 RadialGrid  ... Gauss-Chebyshev
Angular Grid (max. acc.)         AngularGrid ... Lebedev-110
Angular grid pruning method      GridPruning ... 3 (G Style)
Weight generation scheme         WeightScheme... Becke
Basis function cutoff            BFCut       ...    1.0000e-12
Integration weight cutoff        WCut        ...    1.0000e-14
Grids for H and He will be reduced by one unit

# of grid points (after initial pruning)     ...  13770 (   0.0 sec)
# of grid points (after weights+screening)   ...  12920 (   0.0 sec)
nearest neighbour list constructed           ...    0.0 sec
Grid point re-assignment to atoms done       ...    0.0 sec
Grid point division into batches done        ...    0.0 sec
Reduced shell lists constructed in    0.1 sec

Total number of grid points                  ...    12920
Total number of batches                      ...      209
Average number of points per batch           ...       61
Average number of grid points per atom       ...      994
Average number of shells per batch           ...    37.19 (88.55%)
Average number of basis functions per batch  ...    66.27 (89.55%)
Average number of large shells per batch     ...    32.44 (87.22%)
Average number of large basis fcns per batch ...    57.38 (86.59%)
Maximum spatial batch extension              ...  20.77, 21.26, 20.66 au
Average spatial batch extension              ...   4.18,  4.08,  4.04 au

Time for grid setup =    5.027 sec

--------------
SCF ITERATIONS
--------------
ITER       Energy         Delta-E        Max-DP      RMS-DP      [F,P]     Damp
               ***  Starting incremental Fock matrix formation  ***
  0   -157.5126731321   0.000000000000 0.00311661  0.00018671  0.0176464 0.7000
  1   -157.5134764991  -0.000803366998 0.00292119  0.00017201  0.0126053 0.7000
                               ***Turning on DIIS***
  2   -157.5141004353  -0.000623936272 0.00765767  0.00045288  0.0090680 0.0000
  3   -157.5156864107  -0.001585975395 0.00272741  0.00009613  0.0014616 0.0000
  4   -157.5157273843  -0.000040973538 0.00254731  0.00008291  0.0008703 0.0000
  5   -157.5157398355  -0.000012451179 0.00044021  0.00001973  0.0004233 0.0000
  6   -157.5157414516  -0.000001616190 0.00027734  0.00000957  0.0001397 0.0000
  7   -157.5157416875  -0.000000235837 0.00003984  0.00000190  0.0000398 0.0000
  8   -157.5157416989  -0.000000011463 0.00001335  0.00000089  0.0000235 0.0000
  9   -157.5157417032  -0.000000004247 0.00000345  0.00000022  0.0000035 0.0000
 10   -157.5157417034  -0.000000000221 0.00000191  0.00000008  0.0000012 0.0000
 11   -157.5157417034  -0.000000000036 0.00000070  0.00000003  0.0000007 0.0000
 12   -157.5157417034  -0.000000000005 0.00000045  0.00000002  0.0000004 0.0000
                 **** Energy Check signals convergence ****

 Fermi smearing  (ALPHA): E(HOMO(Eh)) = -0.326424 MUE = -0.082460 gap=   7.591 eV
 Fermi smearing   (BETA): E(HOMO(Eh)) = -0.321004 MUE = -0.188021 gap=   7.149 eV

N_FOD(alpha) =  0.000000
 N_FOD(beta) =  0.000000
       N_FOD =  0.000000

               *****************************************************
               *                     SUCCESS                       *
               *           SCF CONVERGED AFTER  13 CYCLES          *
               *****************************************************

Setting up the final grid:

General Integration Accuracy     IntAcc      ...  4.670
Radial Grid Type                 RadialGrid  ... Gauss-Chebyshev
Angular Grid (max. acc.)         AngularGrid ... Lebedev-302
Angular grid pruning method      GridPruning ... 3 (G Style)
Weight generation scheme         WeightScheme... Becke
Basis function cutoff            BFCut       ...    1.0000e-12
Integration weight cutoff        WCut        ...    1.0000e-14
Grids for H and He will be reduced by one unit

# of grid points (after initial pruning)     ...  55394 (   0.0 sec)
# of grid points (after weights+screening)   ...  51313 (   0.1 sec)
nearest neighbour list constructed           ...    0.0 sec
Grid point re-assignment to atoms done       ...    0.0 sec
Grid point division into batches done        ...    0.1 sec
Reduced shell lists constructed in    0.3 sec

Total number of grid points                  ...    51313
Total number of batches                      ...      811
Average number of points per batch           ...       63
Average number of grid points per atom       ...     3947
Average number of shells per batch           ...    34.80 (82.86%)
Average number of basis functions per batch  ...    61.78 (83.49%)
Average number of large shells per batch     ...    29.76 (85.51%)
Average number of large basis fcns per batch ...    52.27 (84.61%)
Maximum spatial batch extension              ...  18.48, 16.46, 21.17 au
Average spatial batch extension              ...   2.59,  2.63,  2.62 au

Final grid set up in    3.2 sec
Final integration                            ... done (  17.5 sec)
Change in XC energy                          ...    -0.000242250
Integrated number of electrons               ...    33.000053804
Previous integrated no of electrons          ...    32.999015997
Total Energy       :         -157.51598395 Eh           -4286.22783 eV
  Last Energy change         ...   -1.0232e-12  Tolerance :   1.0000e-09
  Last MAX-Density change    ...    2.4579e-07  Tolerance :   1.0000e-08
             **** THE GBW FILE WAS UPDATED (orca8.gbw) ****
             **** DENSITY FILE WAS UPDATED (orca8.scfp) ****
             **** ENERGY FILE WAS UPDATED (orca8.en.tmp) ****
             **** THE GBW FILE WAS UPDATED (orca8.gbw) ****
             **** DENSITY FILE WAS UPDATED (orca8.scfp) ****
Total SCF time: 0 days 0 hours 9 min 13 sec 


-------------------------------------------------------------------------------
                          DFT DISPERSION CORRECTION                            
                                                                               
                              DFTD3 V3.1  Rev 1                                
                          USING Becke-Johnson damping                          
-------------------------------------------------------------------------------
-------------------------   ----------------
Dispersion correction           -0.014263482
-------------------------   ----------------


-------------------------   --------------------
FINAL SINGLE POINT ENERGY      -157.530247435421
-------------------------   --------------------

------------------------------------------------------------------------------
                         ORCA SCF GRADIENT CALCULATION
------------------------------------------------------------------------------

Gradient of the Kohn-Sham DFT energy:
Kohn-Sham wavefunction type      ... UKS
Hartree-Fock exchange scaling    ...    0.200
Number of operators              ...    2
Number of atoms                  ...   13
Basis set dimensions             ...   74
Integral neglect threshold       ... 1.0e-12
Integral primitive cutoff        ... 1.0e-14

Nuclear repulsion gradient       ... done
One Electron Gradient            ... done
Pre-screening matrix             ... done
Starting the two electron gradient:
Two electron gradient done
Exchange-correlation gradient    ... done
Dispersion correction            ... done

------------------
CARTESIAN GRADIENT
------------------

   1   C   :   -0.005421665    0.002114394    0.007346302
   2   C   :    0.019608956    0.008525605   -0.024435850
   3   C   :    0.000485385    0.012242573   -0.004824920
   4   C   :   -0.010499408   -0.009155992   -0.003313108
   5   H   :   -0.003370011    0.000833288    0.000643033
   6   H   :   -0.006278143   -0.003798476    0.009665321
   7   H   :   -0.006096160   -0.003218841    0.006545602
   8   H   :    0.001872547   -0.001348558    0.000680373
   9   H   :    0.000798635   -0.003102953    0.000189001
  10   H   :   -0.000441921   -0.004326734    0.003983223
  11   H   :    0.005647020    0.001541026    0.002977068
  12   H   :    0.002470779   -0.000115000    0.001628385
  13   H   :    0.001223988   -0.000190332   -0.001084432

Difference to translation invariance:
           :   -0.0000000000   -0.0000000000    0.0000000000

Norm of the cartesian gradient     ...    0.0433146363
RMS gradient                       ...    0.0069358927
MAX gradient                       ...    0.0244358499

-------
TIMINGS
-------

Total SCF gradient time            ...        4.110 sec

One electron gradient       ....       0.027 sec  (  0.7%)
Prescreening matrices       ....       0.026 sec  (  0.6%)
Two electron gradient       ....       1.336 sec  ( 32.5%)
XC gradient                 ....       2.404 sec  ( 58.5%)
------------------------------------------------------------------------------
                         ORCA GEOMETRY RELAXATION STEP
------------------------------------------------------------------------------

Reading the OPT-File                    .... done
Getting information on internals        .... done
Copying old internal coords+grads       .... done
Making the new internal coordinates     .... (new redundants).... done
Validating the new internal coordinates .... (new redundants).... done
Calculating the B-matrix                .... done
Calculating the G,G- and P matrices     .... done
Transforming gradient to internals      .... done
Projecting the internal gradient        .... done
Number of atoms                         ....  13
Number of internal coordinates          ....  57
Current Energy                          ....  -157.530247435 Eh
Current gradient norm                   ....     0.043314636 Eh/bohr
Maximum allowed component of the step   ....  0.300
Current trust radius                    ....  0.300
Updating the Hessian (BFGS)             .... done
Forming the augmented Hessian           .... done
Diagonalizing the augmented Hessian     .... done
Last element of RFO vector              ....  0.944803587
Lowest eigenvalues of augmented Hessian:
 -0.007770486  0.011641126  0.013219344  0.013846158  0.069439666
Length of the computed step             ....  0.346778185
Warning: the length of the step is outside the trust region - taking restricted step instead
The input lambda is                     ....    -0.007770
   iter:   1  x=   -0.013081  g=    5.697217 f(x)=     0.030255
   iter:   2  x=   -0.014901  g=    3.548334 f(x)=     0.006460
   iter:   3  x=   -0.015035  g=    3.108607 f(x)=     0.000415
   iter:   4  x=   -0.015036  g=    3.079996 f(x)=     0.000002
   iter:   5  x=   -0.015036  g=    3.079864 f(x)=     0.000000
   iter:   6  x=   -0.015036  g=    3.079864 f(x)=     0.000000
The output lambda is                    ....    -0.015036 (6 iterations)
The final length of the internal step   ....  0.300000000
Converting the step to cartesian space:
 Initial RMS(Int)=    0.0397359707
Transforming coordinates:
 Iter   0:  RMS(Cart)=    0.0521271578 RMS(Int)=    0.0402682768
 Iter   1:  RMS(Cart)=    0.0034629275 RMS(Int)=    0.0026722584
 Iter   2:  RMS(Cart)=    0.0002618792 RMS(Int)=    0.0002341976
 Iter   3:  RMS(Cart)=    0.0000317953 RMS(Int)=    0.0000268995
 Iter   4:  RMS(Cart)=    0.0000033977 RMS(Int)=    0.0000027335
 Iter   5:  RMS(Cart)=    0.0000004090 RMS(Int)=    0.0000003652
 Iter   6:  RMS(Cart)=    0.0000000456 RMS(Int)=    0.0000000358
done
Storing new coordinates                 .... done

                                .--------------------.
          ----------------------|Geometry convergence|-------------------------
          Item                value                   Tolerance       Converged
          ---------------------------------------------------------------------
          Energy change      -0.0125743273            0.0000050000      NO
          RMS gradient        0.0036826590            0.0001000000      NO
          MAX gradient        0.0108403341            0.0003000000      NO
          RMS step            0.0397359707            0.0020000000      NO
          MAX step            0.1181117379            0.0040000000      NO
          ........................................................
          Max(Bonds)      0.0157      Max(Angles)    4.61
          Max(Dihed)        6.77      Max(Improp)    0.00
          ---------------------------------------------------------------------

The optimization has not yet converged - more geometry cycles are needed


    ---------------------------------------------------------------------------
                         Redundant Internal Coordinates
                            (Angstroem and degrees)

        Definition                    Value    dE/dq     Step     New-Value
    ----------------------------------------------------------------------------
     1. B(C   1,C   0)                1.5309  0.006775 -0.0135    1.5174   
     2. B(C   2,C   0)                1.5299 -0.004004  0.0087    1.5386   
     3. B(C   3,C   0)                1.5454 -0.007335  0.0157    1.5611   
     4. B(H   4,C   0)                1.1109  0.001251 -0.0032    1.1076   
     5. B(H   5,C   1)                1.1058  0.002732 -0.0069    1.0988   
     6. B(H   6,C   1)                1.1037  0.001697 -0.0042    1.0994   
     7. B(H   7,C   2)                1.1100  0.001723 -0.0044    1.1056   
     8. B(H   8,C   2)                1.1057 -0.000006 -0.0000    1.1057   
     9. B(H   9,C   2)                1.1058  0.000518 -0.0013    1.1045   
    10. B(H  10,C   3)                1.1070  0.001308 -0.0034    1.1036   
    11. B(H  11,C   3)                1.1083  0.001885 -0.0048    1.1035   
    12. B(H  12,C   3)                1.1038  0.000220 -0.0006    1.1032   
    13. A(C   1,C   0,H   4)          107.86  0.001644   -0.65    107.21   
    14. A(C   2,C   0,H   4)          106.48 -0.001317    0.54    107.02   
    15. A(C   1,C   0,C   2)          111.22 -0.001435    0.59    111.81   
    16. A(C   1,C   0,C   3)          111.07 -0.001599    0.47    111.55   
    17. A(C   2,C   0,C   3)          112.45  0.002508   -0.67    111.78   
    18. A(C   3,C   0,H   4)          107.47  0.000271   -0.33    107.14   
    19. A(H   5,C   1,H   6)          112.90  0.004741    2.27    115.17   
    20. A(C   0,C   1,H   6)          114.53 -0.009504    4.18    118.71   
    21. A(C   0,C   1,H   5)          113.11 -0.010840    4.61    117.72   
    22. A(H   7,C   2,H   9)          105.48 -0.001175    1.09    106.57   
    23. A(C   0,C   2,H   9)          112.84  0.002528   -0.99    111.85   
    24. A(H   7,C   2,H   8)          106.22 -0.000790    0.86    107.09   
    25. A(C   0,C   2,H   8)          112.70  0.002474   -1.02    111.68   
    26. A(H   8,C   2,H   9)          110.18  0.000517   -1.22    108.96   
    27. A(C   0,C   2,H   7)          108.94 -0.004132    1.75    110.68   
    28. A(H  11,C   3,H  12)          107.16  0.000733   -0.09    107.07   
    29. A(H  10,C   3,H  12)          110.15  0.001984   -1.50    108.65   
    30. A(C   0,C   3,H  12)          112.57  0.001936   -0.94    111.63   
    31. A(H  10,C   3,H  11)          104.63 -0.001325    1.43    106.06   
    32. A(C   0,C   3,H  11)          109.64 -0.003425    1.44    111.08   
    33. A(C   0,C   3,H  10)          112.26 -0.000183   -0.04    112.22   
    34. D(H   6,C   1,C   0,C   3)   -137.82 -0.005779    2.64   -135.19   
    35. D(H   6,C   1,C   0,H   4)    104.65 -0.006196    3.15    107.80   
    36. D(H   6,C   1,C   0,C   2)    -11.77 -0.004789    2.56     -9.21   
    37. D(H   5,C   1,C   0,H   4)    -26.65  0.006717   -6.17    -32.82   
    38. D(H   5,C   1,C   0,C   2)   -143.06  0.008124   -6.77   -149.83   
    39. D(H   5,C   1,C   0,C   3)     90.88  0.007134   -6.69     84.19   
    40. D(H   7,C   2,C   0,C   1)     46.81 -0.000028    1.19     48.00   
    41. D(H   9,C   2,C   0,C   1)    163.60 -0.002641    3.07    166.67   
    42. D(H   8,C   2,C   0,H   4)    171.93  0.001717   -0.25    171.68   
    43. D(H   8,C   2,C   0,C   1)    -70.81  0.002145   -0.41    -71.22   
    44. D(H   7,C   2,C   0,H   4)    -70.45 -0.000457    1.35    -69.10   
    45. D(H   7,C   2,C   0,C   3)    172.10 -0.001344    1.78    173.88   
    46. D(H   9,C   2,C   0,C   3)    -71.11 -0.003957    3.66    -67.45   
[...]

             **** THE GBW FILE WAS UPDATED (orca8.gbw) ****
             **** DENSITY FILE WAS UPDATED (orca8.scfp) ****
             **** ENERGY FILE WAS UPDATED (orca8.en.tmp) ****
             **** THE GBW FILE WAS UPDATED (orca8.gbw) ****
             **** DENSITY FILE WAS UPDATED (orca8.scfp) ****
----------------
ORBITAL ENERGIES
----------------
                 SPIN UP ORBITALS
  NO   OCC          E(Eh)            E(eV) 
   0   1.0000     -10.188360      -277.2394 
   1   1.0000     -10.180447      -277.0241 
   2   1.0000     -10.168528      -276.6997 
   3   1.0000     -10.168332      -276.6944 
   4   1.0000      -0.793678       -21.5971 
   5   1.0000      -0.671733       -18.2788 
   6   1.0000      -0.661412       -17.9979 
   7   1.0000      -0.548953       -14.9378 
   8   1.0000      -0.455933       -12.4066 
   9   1.0000      -0.439429       -11.9575 
  10   1.0000      -0.430515       -11.7149 
  11   1.0000      -0.382602       -10.4111 
  12   1.0000      -0.367547       -10.0014 
  13   1.0000      -0.347142        -9.4462 
  14   1.0000      -0.338219        -9.2034 
  15   1.0000      -0.332708        -9.0535 
  16   1.0000      -0.201799        -5.4912 
  17   0.0000       0.058833         1.6009 
  18   0.0000       0.106114         2.8875 
  19   0.0000       0.106963         2.9106 
  20   0.0000       0.108136         2.9425 
  21   0.0000       0.123225         3.3531 
  22   0.0000       0.129204         3.5158 
  23   0.0000       0.146669         3.9911 
  24   0.0000       0.167160         4.5487 
  25   0.0000       0.179450         4.8831 
  26   0.0000       0.209260         5.6942 
  27   0.0000       0.255491         6.9523 
  28   0.0000       0.259142         7.0516 
  29   0.0000       0.403601        10.9825 
  30   0.0000       0.424014        11.5380 
  31   0.0000       0.424632        11.5548 
  32   0.0000       0.444096        12.0845 
  33   0.0000       0.481300        13.0969 
  34   0.0000       0.497072        13.5260 
  35   0.0000       0.556974        15.1560 
  36   0.0000       0.608370        16.5546 
  37   0.0000       0.647116        17.6089 
  38   0.0000       0.654437        17.8081 
  39   0.0000       0.656989        17.8776 
  40   0.0000       0.662895        18.0383 
  41   0.0000       0.671690        18.2776 
  42   0.0000       0.692256        18.8372 
  43   0.0000       0.703078        19.1317 
  44   0.0000       0.706582        19.2271 
  45   0.0000       0.719340        19.5742 
  46   0.0000       0.731340        19.9008 
  47   0.0000       0.749989        20.4082 
  48   0.0000       0.756291        20.5797 
  49   0.0000       0.762162        20.7395 
  50   0.0000       0.875402        23.8209 
  51   0.0000       0.934518        25.4295 
  52   0.0000       1.055679        28.7265 
  53   0.0000       1.062263        28.9056 
  54   0.0000       1.396446        37.9992 
  55   0.0000       1.488096        40.4931 
  56   0.0000       1.679873        45.7117 
  57   0.0000       1.744750        47.4771 
  58   0.0000       1.766033        48.0562 
  59   0.0000       1.855903        50.5017 
  60   0.0000       1.914260        52.0897 
  61   0.0000       1.941406        52.8283 
  62   0.0000       1.952697        53.1356 
  63   0.0000       1.989993        54.1505 
  64   0.0000       2.059878        56.0521 
  65   0.0000       2.092147        56.9302 
  66   0.0000       2.145643        58.3859 
  67   0.0000       2.154681        58.6319 
  68   0.0000       2.160084        58.7789 
  69   0.0000       2.427635        66.0593 
  70   0.0000       2.442871        66.4739 
  71   0.0000       2.465624        67.0930 
  72   0.0000       2.675632        72.8076 
  73   0.0000       2.690976        73.2252 

                 SPIN DOWN ORBITALS
  NO   OCC          E(Eh)            E(eV) 
   0   1.0000     -10.189324      -277.2656 
   1   1.0000     -10.168134      -276.6890 
   2   1.0000     -10.167902      -276.6827 
   3   1.0000     -10.165973      -276.6302 
   4   1.0000      -0.786687       -21.4068 
   5   1.0000      -0.671118       -18.2621 
   6   1.0000      -0.637959       -17.3597 
   7   1.0000      -0.538837       -14.6625 
   8   1.0000      -0.449888       -12.2421 
   9   1.0000      -0.433728       -11.8024 
  10   1.0000      -0.428055       -11.6480 
  11   1.0000      -0.382076       -10.3968 
  12   1.0000      -0.364978        -9.9316 
  13   1.0000      -0.340576        -9.2675 
  14   1.0000      -0.331350        -9.0165 
  15   1.0000      -0.330371        -8.9899 
  16   0.0000      -0.045641        -1.2420 
  17   0.0000       0.061387         1.6704 
  18   0.0000       0.107313         2.9201 
  19   0.0000       0.108186         2.9439 
  20   0.0000       0.115326         3.1382 
  21   0.0000       0.127049         3.4572 
  22   0.0000       0.131245         3.5714 
  23   0.0000       0.148371         4.0374 
  24   0.0000       0.167208         4.5500 
  25   0.0000       0.180803         4.9199 
  26   0.0000       0.212227         5.7750 
  27   0.0000       0.256031         6.9670 
  28   0.0000       0.267166         7.2700 
  29   0.0000       0.405522        11.0348 
  30   0.0000       0.425756        11.5854 
  31   0.0000       0.431951        11.7540 
  32   0.0000       0.444638        12.0992 
  33   0.0000       0.500879        13.6296 
  34   0.0000       0.538580        14.6555 
  35   0.0000       0.583454        15.8766 
  36   0.0000       0.619315        16.8524 
  37   0.0000       0.649000        17.6602 
  38   0.0000       0.656955        17.8766 
  39   0.0000       0.661274        17.9942 
  40   0.0000       0.667778        18.1712 
  41   0.0000       0.681208        18.5366 
  42   0.0000       0.693163        18.8619 
  43   0.0000       0.706507        19.2250 
  44   0.0000       0.709548        19.3078 
  45   0.0000       0.719371        19.5751 
  46   0.0000       0.734201        19.9786 
  47   0.0000       0.752713        20.4824 
  48   0.0000       0.762853        20.7583 
  49   0.0000       0.768556        20.9135 
  50   0.0000       0.883283        24.0353 
  51   0.0000       0.938050        25.5256 
  52   0.0000       1.061172        28.8760 
  53   0.0000       1.065334        28.9892 
  54   0.0000       1.410536        38.3826 
  55   0.0000       1.488845        40.5135 
  56   0.0000       1.729417        47.0598 
  57   0.0000       1.747693        47.5571 
  58   0.0000       1.778649        48.3995 
  59   0.0000       1.870750        50.9057 
  60   0.0000       1.926409        52.4202 
  61   0.0000       1.953883        53.1679 
  62   0.0000       1.979092        53.8538 
  63   0.0000       2.012519        54.7634 
  64   0.0000       2.084423        56.7200 
  65   0.0000       2.101165        57.1756 
  66   0.0000       2.146504        58.4094 
  67   0.0000       2.161063        58.8055 
  68   0.0000       2.164287        58.8932 
  69   0.0000       2.437430        66.3259 
  70   0.0000       2.453931        66.7749 
  71   0.0000       2.468503        67.1714 
  72   0.0000       2.682323        72.9897 
  73   0.0000       2.692217        73.2590 

                    ********************************
                    * MULLIKEN POPULATION ANALYSIS *
                    ********************************

------------------------------------------
FOD BASED MULLIKEN REDUCED ORBITAL CHARGES
------------------------------------------
  0 C s       :    -0.000000  s :    -0.000000
      pz      :     0.000000  p :     0.000000
      px      :     0.000000
      py      :     0.000000
      dz2     :     0.000000  d :     0.000000
      dxz     :     0.000000
      dyz     :     0.000000
      dx2y2   :     0.000000
      dxy     :     0.000000
  1 C s       :    -0.000000  s :    -0.000000
      pz      :     0.000000  p :     0.000000
      px      :     0.000000
      py      :     0.000000
      dz2     :     0.000000  d :     0.000000
      dxz     :     0.000000
      dyz     :     0.000000
      dx2y2   :     0.000000
      dxy     :     0.000000
  2 C s       :    -0.000000  s :    -0.000000
      pz      :     0.000000  p :     0.000000
      px      :     0.000000
      py      :     0.000000
      dz2     :     0.000000  d :     0.000000
      dxz     :     0.000000
      dyz     :     0.000000
      dx2y2   :     0.000000
      dxy     :     0.000000
  3 C s       :    -0.000000  s :    -0.000000
      pz      :     0.000000  p :     0.000000
      px      :     0.000000
      py      :     0.000000
      dz2     :     0.000000  d :     0.000000
      dxz     :     0.000000
      dyz     :     0.000000
      dx2y2   :     0.000000
      dxy     :     0.000000
  4 H s       :     0.000000  s :     0.000000
  5 H s       :     0.000000  s :     0.000000
  6 H s       :     0.000000  s :     0.000000
  7 H s       :     0.000000  s :     0.000000
  8 H s       :     0.000000  s :     0.000000
  9 H s       :     0.000000  s :     0.000000
 10 H s       :     0.000000  s :     0.000000
 11 H s       :     0.000000  s :     0.000000
 12 H s       :     0.000000  s :     0.000000


                     *******************************
                     * LOEWDIN POPULATION ANALYSIS *
                     *******************************

-------------------------------------------
LOEWDIN ATOMIC CHARGES AND SPIN POPULATIONS
-------------------------------------------
   0 C :   -0.160011   -0.013630
   1 C :   -0.224476    0.979390
   2 C :   -0.307682    0.014772
   3 C :   -0.309228    0.013668
   4 H :    0.117091    0.053859
   5 H :    0.111744   -0.025645
   6 H :    0.111935   -0.025566
   7 H :    0.109963   -0.000423
   8 H :    0.111063    0.001263
   9 H :    0.108728    0.000854
  10 H :    0.109317    0.000602
  11 H :    0.110375   -0.000413
  12 H :    0.111181    0.001269

----------------------------------------------------
LOEWDIN REDUCED ORBITAL CHARGES AND SPIN POPULATIONS
----------------------------------------------------
CHARGE
  0 C s       :     2.876030  s :     2.876030
      pz      :     1.062039  p :     3.172190
      px      :     1.057503
      py      :     1.052648
      dz2     :     0.031084  d :     0.111791
      dxz     :     0.014328
      dyz     :     0.014171
      dx2y2   :     0.024602
      dxy     :     0.027607
  1 C s       :     3.017625  s :     3.017625
      pz      :     1.006958  p :     3.149825
      px      :     1.062188
      py      :     1.080679
      dz2     :     0.006946  d :     0.057026
      dxz     :     0.004511
      dyz     :     0.001680
      dx2y2   :     0.024275
      dxy     :     0.019614
  2 C s       :     2.957912  s :     2.957912
      pz      :     1.112068  p :     3.277081
      px      :     1.071072
      py      :     1.093941
      dz2     :     0.023268  d :     0.072689
      dxz     :     0.006798
      dyz     :     0.009458
      dx2y2   :     0.017740
      dxy     :     0.015426
  3 C s       :     2.957966  s :     2.957966
      pz      :     1.111506  p :     3.278632
      px      :     1.107503
      py      :     1.059623
      dz2     :     0.023947  d :     0.072630
      dxz     :     0.005688
      dyz     :     0.009775
      dx2y2   :     0.011648
      dxy     :     0.021572
  4 H s       :     0.882909  s :     0.882909
  5 H s       :     0.888256  s :     0.888256
  6 H s       :     0.888065  s :     0.888065
  7 H s       :     0.890037  s :     0.890037
  8 H s       :     0.888937  s :     0.888937
  9 H s       :     0.891272  s :     0.891272
 10 H s       :     0.890683  s :     0.890683
 11 H s       :     0.889625  s :     0.889625
 12 H s       :     0.888819  s :     0.888819

SPIN
  0 C s       :    -0.004826  s :    -0.004826
      pz      :    -0.007261  p :    -0.026252
      px      :    -0.013007
      py      :    -0.005983
      dz2     :     0.005114  d :     0.017447
      dxz     :     0.008244
      dyz     :     0.002946
      dx2y2   :     0.000463
      dxy     :     0.000680
  1 C s       :     0.039757  s :     0.039757
      pz      :     0.889550  p :     0.943488
      px      :     0.032841
      py      :     0.021097
      dz2     :    -0.002411  d :    -0.003855
      dxz     :     0.000016
      dyz     :     0.000036
      dx2y2   :    -0.000757
      dxy     :    -0.000740
  2 C s       :     0.005066  s :     0.005066
      pz      :     0.000484  p :     0.009828
      px      :     0.005341
      py      :     0.004004
      dz2     :    -0.000084  d :    -0.000122
      dxz     :    -0.000061
      dyz     :     0.000103
      dx2y2   :    -0.000118
      dxy     :     0.000038
  3 C s       :     0.004650  s :     0.004650
      pz      :     0.000447  p :     0.009154
      px      :     0.000778
      py      :     0.007930
      dz2     :    -0.000079  d :    -0.000136
      dxz     :     0.000123
      dyz     :    -0.000093
      dx2y2   :    -0.000019
      dxy     :    -0.000067
  4 H s       :     0.053859  s :     0.053859
  5 H s       :    -0.025645  s :    -0.025645
  6 H s       :    -0.025566  s :    -0.025566
  7 H s       :    -0.000423  s :    -0.000423
  8 H s       :     0.001263  s :     0.001263
  9 H s       :     0.000854  s :     0.000854
 10 H s       :     0.000602  s :     0.000602
 11 H s       :    -0.000413  s :    -0.000413
 12 H s       :     0.001269  s :     0.001269


                      *****************************
                      * MAYER POPULATION ANALYSIS *
                      *****************************

  NA   - Mulliken gross atomic population
  ZA   - Total nuclear charge
  QA   - Mulliken gross atomic charge
  VA   - Mayer's total valence
  BVA  - Mayer's bonded valence
  FA   - Mayer's free valence

  ATOM       NA         ZA         QA         VA         BVA        FA
  0 C      6.0954     6.0000    -0.0954     4.1876     4.1846     0.0030
  1 C      6.2415     6.0000    -0.2415     3.8816     2.9960     0.8856
  2 C      6.2404     6.0000    -0.2404     3.9559     3.9558     0.0002
  3 C      6.2476     6.0000    -0.2476     3.9565     3.9564     0.0001
  4 H      0.9183     1.0000     0.0817     0.9341     0.9304     0.0036
  5 H      0.8991     1.0000     0.1009     0.9542     0.9514     0.0028
  6 H      0.8979     1.0000     0.1021     0.9541     0.9512     0.0028
  7 H      0.9105     1.0000     0.0895     0.9557     0.9557     0.0000
  8 H      0.9081     1.0000     0.0919     0.9619     0.9619     0.0000
  9 H      0.9141     1.0000     0.0859     0.9581     0.9581     0.0000
 10 H      0.9116     1.0000     0.0884     0.9573     0.9573     0.0000
 11 H      0.9076     1.0000     0.0924     0.9546     0.9546     0.0000
 12 H      0.9077     1.0000     0.0923     0.9620     0.9620     0.0000

  Mayer bond orders larger than 0.100000
B(  0-C ,  1-C ) :   1.0767 B(  0-C ,  2-C ) :   1.0912 B(  0-C ,  3-C ) :   1.0912 
B(  0-C ,  4-H ) :   0.8979 B(  1-C ,  5-H ) :   0.9422 B(  1-C ,  6-H ) :   0.9414 
B(  2-C ,  7-H ) :   0.9567 B(  2-C ,  8-H ) :   0.9590 B(  2-C ,  9-H ) :   0.9578 
B(  3-C , 10-H ) :   0.9578 B(  3-C , 11-H ) :   0.9573 B(  3-C , 12-H ) :   0.9585 


-------
TIMINGS
-------

Total SCF time: 0 days 0 hours 1 min 0 sec 

Total time                  ....      60.298 sec
Sum of individual times     ....      51.960 sec  ( 86.2%)

Fock matrix formation       ....      45.533 sec  ( 75.5%)
  XC integration            ....      19.943 sec  ( 43.8% of F)
    Basis function eval.    ....       0.605 sec  (  3.0% of XC)
    Density eval.           ....       0.414 sec  (  2.1% of XC)
    XC-Functional eval.     ....       0.252 sec  (  1.3% of XC)
    XC-Potential eval.      ....       0.607 sec  (  3.0% of XC)
Diagonalization             ....       0.034 sec  (  0.1%)
Density matrix formation    ....       3.195 sec  (  5.3%)
Population analysis         ....       1.241 sec  (  2.1%)
Initial guess               ....       0.003 sec  (  0.0%)
Orbital Transformation      ....       0.000 sec  (  0.0%)
Orbital Orthonormalization  ....       0.001 sec  (  0.0%)
DIIS solution               ....       0.717 sec  (  1.2%)
Grid generation             ....       1.236 sec  (  2.1%)


-------------------------------------------------------------------------------
                          DFT DISPERSION CORRECTION                            
                                                                               
                              DFTD3 V3.1  Rev 1                                
                          USING Becke-Johnson damping                          
-------------------------------------------------------------------------------
The B3LYP functional is recognized
Active option DFTDOPT                   ...         4   

molecular C6(AA) [au] = 1132.640957 


            DFT-D V3
 parameters
 s6 scaling factor         :     1.0000 
 a1 scaling factor         :     0.3981 
 s8 scaling factor         :     1.9889 
 a2 scaling factor         :     4.4211 
 ad hoc parameters k1-k3   :    16.0000     1.3333    -4.0000 

 Edisp/kcal,au: -9.020010651666  -0.014374300409 
 E6   /kcal   :  -4.465129443 
 E8   /kcal   :  -4.554881209 
 % E8         :  50.497514743 

-------------------------   ----------------
Dispersion correction           -0.014374300
-------------------------   ----------------


-------------------------   --------------------
FINAL SINGLE POINT ENERGY      -157.545303418252
-------------------------   --------------------

                                *** OPTIMIZATION RUN DONE ***

                            ***************************************
                            *     ORCA property calculations      *
                            ***************************************

                                    ---------------------
                                    Active property flags
                                    ---------------------
   (+) Dipole Moment


------------------------------------------------------------------------------
                       ORCA ELECTRIC PROPERTIES CALCULATION
------------------------------------------------------------------------------

Dipole Moment Calculation                       ... on
Quadrupole Moment Calculation                   ... off
Polarizability Calculation                      ... off
GBWName                                         ... orca8.gbw
Electron density file                           ... orca8.scfp
The origin for moment calculation is the CENTER OF MASS  = (-0.123127, -0.055268  0.160627)

-------------
DIPOLE MOMENT
-------------
                                X             Y             Z
Electronic contribution:      0.94567      -0.51455       0.49615
Nuclear contribution   :     -0.99819       0.54450      -0.40720
                        -----------------------------------------
Total Dipole Moment    :     -0.05252       0.02995       0.08895
                        -----------------------------------------
Magnitude (a.u.)       :      0.10755
Magnitude (Debye)      :      0.27338



--------------------
Rotational spectrum 
--------------------
 
Rotational constants in cm-1:     0.278960     0.261891     0.152946 
Rotational constants in MHz :  8363.002136  7851.286739  4585.199571 

 Dipole components along the rotational axes: 
x,y,z [a.u.] :    -0.001349     0.048463     0.096008 
x,y,z [Debye]:    -0.003430     0.123182     0.244033 

 

Timings for individual modules:

Sum of individual times         ...     8973.305 sec (= 149.555 min)
GTO integral calculation        ...      198.457 sec (=   3.308 min)   2.2 %
SCF iterations                  ...     8538.206 sec (= 142.303 min)  95.2 %
SCF Gradient evaluation         ...      137.819 sec (=   2.297 min)   1.5 %
Geometry relaxation             ...       98.824 sec (=   1.647 min)   1.1 %
                             ****ORCA TERMINATED NORMALLY****
TOTAL RUN TIME: 0 days 2 hours 35 minutes 21 seconds 657 msec
