
                                 *****************
                                 * O   R   C   A *
                                 *****************

           --- An Ab Initio, DFT and Semiempirical electronic structure package ---

                  #######################################################
                  #                        -***-                        #
                  #          Department of theory and spectroscopy      #
                  #               Directorship: Frank Neese             #
                  #        Max Planck Institute fuer Kohlenforschung    #
                  #                Kaiser Wilhelm Platz 1               #
                  #                 D-45470 Muelheim/Ruhr               #
                  #                      Germany                        #
                  #                                                     #
                  #                  All rights reserved                #
                  #                        -***-                        #
                  #######################################################


                         Program Version 4.2.1 -  RELEASE  -


 With contributions from (in alphabetic order):
   Daniel Aravena         : Magnetic Suceptibility
   Michael Atanasov       : Ab Initio Ligand Field Theory (pilot matlab implementation)
   Alexander A. Auer      : GIAO ZORA, VPT2
   Ute Becker             : Parallelization
   Giovanni Bistoni       : ED, misc. LED, open-shell LED, HFLD
   Martin Brehm           : Molecular dynamics
   Dmytro Bykov           : SCF Hessian
   Vijay G. Chilkuri      : MRCI spin determinant printing, contributions to CSF-ICE
   Dipayan Datta          : RHF DLPNO-CCSD density
   Achintya Kumar Dutta   : EOM-CC, STEOM-CC
   Dmitry Ganyushin       : Spin-Orbit,Spin-Spin,Magnetic field MRCI
   Miquel Garcia          : C-PCM Hessian, Gaussian charge scheme
   Yang Guo               : DLPNO-NEVPT2, CIM, IAO-localization
   Andreas Hansen         : Spin unrestricted coupled pair/coupled cluster methods
   Benjamin Helmich-Paris : CASSCF linear response (MC-RPA)
   Lee Huntington         : MR-EOM, pCC
   Robert Izsak           : Overlap fitted RIJCOSX, COSX-SCS-MP3, EOM
   Christian Kollmar      : KDIIS, OOCD, Brueckner-CCSD(T), CCSD density
   Simone Kossmann        : Meta GGA functionals, TD-DFT gradient, OOMP2, MP2 Hessian
   Martin Krupicka        : AUTO-CI
   Lucas Lang             : DCDCAS
   Dagmar Lenk            : GEPOL surface, SMD
   Dimitrios Liakos       : Extrapolation schemes; Compound Job, initial MDCI parallelization
   Dimitrios Manganas     : Further ROCIS development; embedding schemes
   Dimitrios Pantazis     : SARC Basis sets
   Taras Petrenko         : DFT Hessian,TD-DFT gradient, ASA, ECA, R-Raman, ABS, FL, XAS/XES, NRVS
   Peter Pinski           : DLPNO-MP2, DLPNO-MP2 Gradient
   Christoph Reimann      : Effective Core Potentials
   Marius Retegan         : Local ZFS, SOC
   Christoph Riplinger    : Optimizer, TS searches, QM/MM, DLPNO-CCSD(T), (RO)-DLPNO pert. Triples
   Tobias Risthaus        : Range-separated hybrids, TD-DFT gradient, RPA, STAB
   Michael Roemelt        : Original ROCIS implementation
   Masaaki Saitow         : Open-shell DLPNO-CCSD energy and density
   Barbara Sandhoefer     : DKH picture change effects
   Avijit Sen             : IP-ROCIS
   Kantharuban Sivalingam : CASSCF convergence, NEVPT2, FIC-MRCI
   Bernardo de Souza      : ESD, SOC TD-DFT
   Georgi Stoychev        : AutoAux, RI-MP2 NMR
   Willem Van den Heuvel  : Paramagnetic NMR
   Boris Wezisla          : Elementary symmetry handling
   Frank Wennmohs         : Technical directorship


 We gratefully acknowledge several colleagues who have allowed us to
 interface, adapt or use parts of their codes:
   Stefan Grimme, W. Hujo, H. Kruse,             : VdW corrections, initial TS optimization,
                  C. Bannwarth                     DFT functionals, gCP, sTDA/sTD-DF
   Ed Valeev, F. Pavosevic, A. Kumar             : LibInt (2-el integral package), F12 methods
   Garnet Chan, S. Sharma, J. Yang, R. Olivares  : DMRG
   Ulf Ekstrom                                   : XCFun DFT Library
   Mihaly Kallay                                 : mrcc  (arbitrary order and MRCC methods)
   Andreas Klamt, Michael Diedenhofen            : otool_cosmo (COSMO solvation model)
   Jiri Pittner, Ondrej Demel                    : Mk-CCSD
   Frank Weinhold                                : gennbo (NPA and NBO analysis)
   Christopher J. Cramer and Donald G. Truhlar   : smd solvation model
   Lars Goerigk                                  : TD-DFT with DH, B97 family of functionals
   V. Asgeirsson, H. Jonsson                     : NEB implementation
   FAccTs GmbH                                   : IRC, NEB, NEB-TS, Multilevel, MM, QM/MM, CI optimization
   S Lehtola, MJT Oliveira, MAL Marques          : LibXC Library


 Your calculation uses the libint2 library for the computation of 2-el integrals
 For citations please refer to: http://libint.valeyev.net

 Your ORCA version has been built with support for libXC version: 4.2.3
 For citations please refer to: https://tddft.org/programs/libxc/

 This ORCA versions uses:
   CBLAS   interface :  Fast vector & matrix operations
   LAPACKE interface :  Fast linear algebra routines
   SCALAPACK package :  Parallel linear algebra routines


Your calculation utilizes the atom-pairwise dispersion correction
with the Becke-Johnson damping scheme (D3BJ)
Cite in your paper:
S.Grimme, S.Ehrlich, L.Goerigk, J Comput Chem, (2011), 32, 1456–1465 
S.Grimme, J.Antony, S.Ehrlich and H.Krieg, J.Chem.Phys., 132, (2010), 154104 
   

----- Orbital basis set information -----
Your calculation utilizes the basis: def2-SV(P)
   F. Weigend and R. Ahlrichs, Phys. Chem. Chem. Phys. 7, 3297 (2005).

----- AuxJ basis set information -----
Your calculation utilizes the auxiliary basis: def2/J
   F. Weigend, Phys. Chem. Chem. Phys. 8, 1057 (2006).

================================================================================
                                        WARNINGS
                       Please study these warnings very carefully!
================================================================================


WARNING: Geometry Optimization
  ===> : Switching off AutoStart
         For restart on a previous wavefunction, please use MOREAD

INFO   : the flag for use of LIBINT has been found!

================================================================================
                                       INPUT FILE
================================================================================
NAME = orca3.inp
|  1> ! UKS B3LYP def2-SV(P) def2/J D3BJ Opt
|  2> %scf Convergence VeryTight
|  3> SmearTemp 2000
|  4> maxiter 500
|  5> end
|  6> *xyz 0 2
|  7> C -0.044128 0.02008 -0.380368
|  8> C -1.443047 -0.029511 0.172956
|  9> C 0.738679 -1.246519 -0.124827
| 10> C 0.718642 1.242971 0.033497
| 11> H -0.163992 0.087142 -1.492734
| 12> H -1.507341 -0.345976 1.219528
| 13> H -1.8965 0.952185 -0.017688
| 14> H 1.598711 -1.290119 -0.840584
| 15> H 0.1194 -2.127687 -0.36519
| 16> H 1.123733 -1.250622 0.905975
| 17> H 0.002011 2.009751 0.420483
| 18> H 1.23108 1.718745 -0.839732
| 19> H 1.534468 1.034087 0.768642
| 20> *
| 21> 
| 22>                          ****END OF INPUT****
================================================================================

                       *****************************
                       * Geometry Optimization Run *
                       *****************************

Geometry optimization settings:
Update method            Update   .... BFGS
Choice of coordinates    CoordSys .... Z-matrix Internals
Initial Hessian          InHess   .... Almoef's Model

Convergence Tolerances:
Energy Change            TolE     ....  5.0000e-06 Eh
Max. Gradient            TolMAXG  ....  3.0000e-04 Eh/bohr
RMS Gradient             TolRMSG  ....  1.0000e-04 Eh/bohr
Max. Displacement        TolMAXD  ....  4.0000e-03 bohr
RMS Displacement         TolRMSD  ....  2.0000e-03 bohr
Strict Convergence                ....  False
------------------------------------------------------------------------------
                        ORCA OPTIMIZATION COORDINATE SETUP
------------------------------------------------------------------------------

The optimization will be done in new redundant internal coordinates
Making redundant internal coordinates   ...  (new redundants) done
Evaluating the initial hessian          ...  (Almloef) done
Evaluating the coordinates              ...  done
Calculating the B-matrix                .... done
Calculating the G-matrix                .... done
Diagonalizing the G-matrix              .... done
The first mode is                       ....   24
The number of degrees of freedom        ....   33

    -----------------------------------------------------------------
                    Redundant Internal Coordinates


    -----------------------------------------------------------------
         Definition                    Initial Value    Approx d2E/dq
    -----------------------------------------------------------------
      1. B(C   1,C   0)                  1.5052         0.409221   
      2. B(C   2,C   0)                  1.5107         0.400952   
      3. B(C   3,C   0)                  1.4995         0.417834   
      4. B(H   4,C   0)                  1.1208         0.321560   
      5. B(H   5,C   1)                  1.0953         0.353207   
      6. B(H   6,C   1)                  1.0980         0.349620   
      7. B(H   7,C   2)                  1.1198         0.322806   
      8. B(H   8,C   2)                  1.1035         0.342662   
      9. B(H   9,C   2)                  1.1004         0.346627   
     10. B(H  10,C   3)                  1.1186         0.324184   
     11. B(H  11,C   3)                  1.1187         0.324070   
     12. B(H  12,C   3)                  1.1179         0.325051   
     13. A(C   1,C   0,H   4)          105.5107         0.323147   
     14. A(C   2,C   0,H   4)          105.8697         0.322067   
     15. A(C   1,C   0,C   2)          113.0648         0.373589   
     16. A(C   1,C   0,C   3)          113.4638         0.376258   
     17. A(C   2,C   0,C   3)          111.9296         0.374934   
     18. A(C   3,C   0,H   4)          106.2317         0.324253   
     19. A(H   5,C   1,H   6)          113.5774         0.288619   
     20. A(C   0,C   1,H   6)          106.8896         0.327623   
     21. A(C   0,C   1,H   5)          114.5411         0.328175   
     22. A(H   7,C   2,H   9)          109.2615         0.284214   
     23. A(C   0,C   2,H   9)          110.0535         0.326061   
     24. A(H   7,C   2,H   8)          105.1116         0.283706   
     25. A(C   0,C   2,H   8)          109.9889         0.325445   
     26. A(H   8,C   2,H   9)          113.4184         0.286869   
     27. A(C   0,C   2,H   7)          108.8139         0.322272   
     28. A(H  11,C   3,H  12)          104.9811         0.281565   
     29. A(H  10,C   3,H  12)          111.6000         0.281580   
     30. A(C   0,C   3,H  12)          113.6000         0.324829   
     31. A(H  10,C   3,H  11)          105.7818         0.281449   
     32. A(C   0,C   3,H  11)          111.3710         0.324668   
     33. A(C   0,C   3,H  10)          109.1853         0.324686   
     34. D(H   6,C   1,C   0,C   3)     48.0457         0.012405   
     35. D(H   6,C   1,C   0,H   4)    -67.8478         0.012405   
     36. D(H   6,C   1,C   0,C   2)    176.8992         0.012405   
     37. D(H   5,C   1,C   0,H   4)    165.4138         0.012405   
     38. D(H   5,C   1,C   0,C   2)     50.1608         0.012405   
     39. D(H   5,C   1,C   0,C   3)    -78.6927         0.012405   
     40. D(H   7,C   2,C   0,C   1)    160.5440         0.012753   
     41. D(H   9,C   2,C   0,C   1)    -79.7627         0.012753   
     42. D(H   8,C   2,C   0,H   4)    -69.1394         0.012753   
     43. D(H   8,C   2,C   0,C   1)     45.8987         0.012753   
     44. D(H   7,C   2,C   0,H   4)     45.5059         0.012753   
     45. D(H   7,C   2,C   0,C   3)    -69.8169         0.012753   
     46. D(H   9,C   2,C   0,C   3)     49.8764         0.012753   
     47. D(H   9,C   2,C   0,H   4)    165.1992         0.012753   
     48. D(H   8,C   2,C   0,C   3)    175.5378         0.012753   
     49. D(H  12,C   3,C   0,H   4)   -135.7280         0.013816   
     50. D(H  12,C   3,C   0,C   1)    108.8048         0.013816   
     51. D(H  11,C   3,C   0,H   4)    -17.4414         0.013816   
     52. D(H  11,C   3,C   0,C   2)     97.6603         0.013816   
     53. D(H  11,C   3,C   0,C   1)   -132.9085         0.013816   
     54. D(H  10,C   3,C   0,H   4)     99.0067         0.013816   
     55. D(H  12,C   3,C   0,C   2)    -20.6264         0.013816   
     56. D(H  10,C   3,C   0,C   2)   -145.8916         0.013816   
     57. D(H  10,C   3,C   0,C   1)    -16.4604         0.013816   
    -----------------------------------------------------------------

Number of atoms                         .... 13
Number of degrees of freedom            .... 57

         *************************************************************
         *                GEOMETRY OPTIMIZATION CYCLE   1            *
         *************************************************************
---------------------------------
CARTESIAN COORDINATES (ANGSTROEM)
---------------------------------
  C     -0.044128    0.020080   -0.380368
  C     -1.443047   -0.029511    0.172956
  C      0.738679   -1.246519   -0.124827
  C      0.718642    1.242971    0.033497
  H     -0.163992    0.087142   -1.492734
  H     -1.507341   -0.345976    1.219528
  H     -1.896500    0.952185   -0.017688
  H      1.598711   -1.290119   -0.840584
  H      0.119400   -2.127687   -0.365190
  H      1.123733   -1.250622    0.905975
  H      0.002011    2.009751    0.420483
  H      1.231080    1.718745   -0.839732
  H      1.534468    1.034087    0.768642

----------------------------
CARTESIAN COORDINATES (A.U.)
----------------------------
  NO LB      ZA    FRAG     MASS         X           Y           Z
   0 C     6.0000    0    12.011   -0.083390    0.037946   -0.718791
   1 C     6.0000    0    12.011   -2.726964   -0.055768    0.326839
   2 C     6.0000    0    12.011    1.395901   -2.355580   -0.235889
   3 C     6.0000    0    12.011    1.358037    2.348875    0.063300
   4 H     1.0000    0     1.008   -0.309900    0.164675   -2.820858
   5 H     1.0000    0     1.008   -2.848462   -0.653800    2.304574
   6 H     1.0000    0     1.008   -3.583866    1.799369   -0.033425
   7 H     1.0000    0     1.008    3.021126   -2.437972   -1.588474
   8 H     1.0000    0     1.008    0.225633   -4.020746   -0.690109
   9 H     1.0000    0     1.008    2.123548   -2.363333    1.712045
  10 H     1.0000    0     1.008    0.003800    3.797879    0.794598
  11 H     1.0000    0     1.008    2.326404    3.247957   -1.586864
  12 H     1.0000    0     1.008    2.899724    1.954141    1.452523

--------------------------------
INTERNAL COORDINATES (ANGSTROEM)
--------------------------------
 C      0   0   0     0.000000000000     0.00000000     0.00000000
 C      1   0   0     1.505191378137     0.00000000     0.00000000
 C      1   2   0     1.510748499497   113.06476644     0.00000000
 C      1   2   3     1.499521493346   113.46382882   231.14643803
 H      1   2   3     1.120813458295   105.51067757   115.25297199
 H      2   1   3     1.095261049177   114.54107914    50.16081238
 H      2   1   3     1.098039978489   106.88955778   176.89922066
 H      3   1   2     1.119760726259   108.81388654   160.54398084
 H      3   1   2     1.103511620163   109.98889786    45.89867422
 H      3   1   2     1.100380016507   110.05350641   280.23727375
 H      4   1   2     1.118601681903   109.18529920   343.53957464
 H      4   1   2     1.118696781689   111.37097629   227.09146971
 H      4   1   2     1.117874214193   113.60001419   108.80481635

---------------------------
INTERNAL COORDINATES (A.U.)
---------------------------
 C      0   0   0     0.000000000000     0.00000000     0.00000000
 C      1   0   0     2.844399483818     0.00000000     0.00000000
 C      1   2   0     2.854900921281   113.06476644     0.00000000
 C      1   2   3     2.833684954352   113.46382882   231.14643803
 H      1   2   3     2.118030483391   105.51067757   115.25297199
 H      2   1   3     2.069743428096   114.54107914    50.16081238
 H      2   1   3     2.074994843442   106.88955778   176.89922066
 H      3   1   2     2.116041108151   108.81388654   160.54398084
 H      3   1   2     2.085334747707   109.98889786    45.89867422
 H      3   1   2     2.079416874439   110.05350641   280.23727375
 H      4   1   2     2.113850831741   109.18529920   343.53957464
 H      4   1   2     2.114030544291   111.37097629   227.09146971
 H      4   1   2     2.112476116997   113.60001419   108.80481635

---------------------
BASIS SET INFORMATION
---------------------
There are 2 groups of distinct atoms

 Group   1 Type C   : 7s4p1d contracted to 3s2p1d pattern {511/31/1}
 Group   2 Type H   : 4s contracted to 2s pattern {31}

Atom   0C    basis set group =>   1
Atom   1C    basis set group =>   1
Atom   2C    basis set group =>   1
Atom   3C    basis set group =>   1
Atom   4H    basis set group =>   2
Atom   5H    basis set group =>   2
Atom   6H    basis set group =>   2
Atom   7H    basis set group =>   2
Atom   8H    basis set group =>   2
Atom   9H    basis set group =>   2
Atom  10H    basis set group =>   2
Atom  11H    basis set group =>   2
Atom  12H    basis set group =>   2
---------------------------------
AUXILIARY/J BASIS SET INFORMATION
---------------------------------
There are 2 groups of distinct atoms

 Group   1 Type C   : 12s5p4d2f1g contracted to 6s4p3d1f1g pattern {711111/2111/211/2/1}
 Group   2 Type H   : 5s2p1d contracted to 3s1p1d pattern {311/2/1}

Atom   0C    basis set group =>   1
Atom   1C    basis set group =>   1
Atom   2C    basis set group =>   1
Atom   3C    basis set group =>   1
Atom   4H    basis set group =>   2
Atom   5H    basis set group =>   2
Atom   6H    basis set group =>   2
Atom   7H    basis set group =>   2
Atom   8H    basis set group =>   2
Atom   9H    basis set group =>   2
Atom  10H    basis set group =>   2
Atom  11H    basis set group =>   2
Atom  12H    basis set group =>   2
------------------------------------------------------------------------------
                           ORCA GTO INTEGRAL CALCULATION
------------------------------------------------------------------------------

                         BASIS SET STATISTICS AND STARTUP INFO

 # of primitive gaussian shells          ...   84
 # of primitive gaussian functions       ...  132
 # of contracted shells                  ...   42
 # of contracted basis functions         ...   74
 Highest angular momentum                ...    2
 Maximum contraction depth               ...    5
 Integral package used                   ... LIBINT
 Integral threshhold            Thresh   ...  1.000e-12
 Primitive cut-off              TCut     ...  1.000e-14


------------------------------ INTEGRAL EVALUATION ----------------------------


 * One electron integrals 
 Pre-screening matrix                    ... done
 Shell pair data                         ... done (   0.000 sec)

-------------------------------------------------------------------------------
                                 ORCA SCF
-------------------------------------------------------------------------------

------------
SCF SETTINGS
------------
Hamiltonian:
 Density Functional     Method          .... DFT(GTOs)
 Exchange Functional    Exchange        .... B88
   X-Alpha parameter    XAlpha          ....  0.666667
   Becke's b parameter  XBeta           ....  0.004200
 Correlation Functional Correlation     .... LYP
 LDA part of GGA corr.  LDAOpt          .... VWN-5
 Gradients option       PostSCFGGA      .... off
 Hybrid DFT is turned on
   Fraction HF Exchange ScalHFX         ....  0.200000
   Scaling of DF-GGA-X  ScalDFX         ....  0.720000
   Scaling of DF-GGA-C  ScalDFC         ....  0.810000
   Scaling of DF-LDA-C  ScalLDAC        ....  1.000000
   Perturbative correction              ....  0.000000
   Density functional embedding theory  .... OFF
   NL short-range parameter             ....  4.800000


General Settings:
 Integral files         IntName         .... orca3
 Hartree-Fock type      HFTyp           .... UHF
 Total Charge           Charge          ....    0
 Multiplicity           Mult            ....    2
 Number of Electrons    NEL             ....   33
 Basis Dimension        Dim             ....   74
 Nuclear Repulsion      ENuc            ....    126.9762994021 Eh

Convergence Acceleration:
 DIIS                   CNVDIIS         .... on
   Start iteration      DIISMaxIt       ....    12
   Startup error        DIISStart       ....  0.200000
   # of expansion vecs  DIISMaxEq       ....     5
   Bias factor          DIISBfac        ....   1.050
   Max. coefficient     DIISMaxC        ....  10.000
 Newton-Raphson         CNVNR           .... off
 SOSCF                  CNVSOSCF        .... off
 Level Shifting         CNVShift        .... on
   Level shift para.    LevelShift      ....    0.2500
   Turn off err/grad.   ShiftErr        ....    0.0010
 Zerner damping         CNVZerner       .... off
 Static damping         CNVDamp         .... on
   Fraction old density DampFac         ....    0.7000
   Max. Damping (<1)    DampMax         ....    0.9800
   Min. Damping (>=0)   DampMin         ....    0.0000
   Turn off err/grad.   DampErr         ....    0.1000
 Fernandez-Rico         CNVRico         .... off

SCF Procedure:
 Maximum # iterations   MaxIter         ....   500
 SCF integral mode      SCFMode         .... Direct
   Integral package                     .... LIBINT
 Reset frequency        DirectResetFreq ....    20
 Integral Threshold     Thresh          ....  1.000e-12 Eh
 Primitive CutOff       TCut            ....  1.000e-14 Eh

Convergence Tolerance:
 Convergence Check Mode ConvCheckMode   .... Total+1el-Energy
 Convergence forced     ConvForced      .... 0
 Energy Change          TolE            ....  1.000e-09 Eh
 1-El. energy change                    ....  1.000e-06 Eh
 DIIS Error             TolErr          ....  1.000e-08


Diagonalization of the overlap matrix:
Smallest eigenvalue                        ... 1.978e-03
Time for diagonalization                   ...    0.001 sec
Threshold for overlap eigenvalues          ... 1.000e-08
Number of eigenvalues below threshold      ... 0
Time for construction of square roots      ...    0.862 sec
Total time needed                          ...    0.864 sec

-------------------
DFT GRID GENERATION
-------------------

General Integration Accuracy     IntAcc      ...  4.340
Radial Grid Type                 RadialGrid  ... Gauss-Chebyshev
Angular Grid (max. acc.)         AngularGrid ... Lebedev-110
Angular grid pruning method      GridPruning ... 3 (G Style)
Weight generation scheme         WeightScheme... Becke
Basis function cutoff            BFCut       ...    1.0000e-12
Integration weight cutoff        WCut        ...    1.0000e-14
Grids for H and He will be reduced by one unit

# of grid points (after initial pruning)     ...  13770 (   0.0 sec)
# of grid points (after weights+screening)   ...  12903 (   0.0 sec)
nearest neighbour list constructed           ...    0.0 sec
Grid point re-assignment to atoms done       ...    0.0 sec
Grid point division into batches done        ...    0.0 sec
Reduced shell lists constructed in    0.1 sec

Total number of grid points                  ...    12903
Total number of batches                      ...      211
Average number of points per batch           ...       61
Average number of grid points per atom       ...      993
Average number of shells per batch           ...    37.36 (88.95%)
Average number of basis functions per batch  ...    66.59 (89.99%)
Average number of large shells per batch     ...    32.83 (87.87%)
Average number of large basis fcns per batch ...    58.15 (87.31%)
Maximum spatial batch extension              ...  21.03, 20.10, 24.82 au
Average spatial batch extension              ...   4.14,  4.10,  4.06 au

Time for grid setup =    0.619 sec

------------------------------
INITIAL GUESS: MODEL POTENTIAL
------------------------------
Loading Hartree-Fock densities                     ... done
Calculating cut-offs                               ... done
Setting up the integral package                    ... done
Initializing the effective Hamiltonian             ... done
Starting the Coulomb interaction                   ... done (   0.0 sec)
Reading the grid                                   ... done
Mapping shells                                     ... done
Starting the XC term evaluation                    ... done (   0.1 sec)
  promolecular density results
     # of electrons  =     32.993781690
     EX              =    -23.187284621
     EC              =     -1.031807080
     EX+EC           =    -24.219091701
Transforming the Hamiltonian                       ... done (   0.0 sec)
Diagonalizing the Hamiltonian                      ... done (   0.0 sec)
Back transforming the eigenvectors                 ... done (   0.0 sec)
Now organizing SCF variables                       ... done
                      ------------------
                      INITIAL GUESS DONE (   0.9 sec)
                      ------------------
--------------
SCF ITERATIONS
--------------
ITER       Energy         Delta-E        Max-DP      RMS-DP      [F,P]     Damp
               ***  Starting incremental Fock matrix formation  ***
  0   -157.3633017668   0.000000000000 0.04279865  0.00207727  0.1740534 0.7000
  1   -157.4320359514  -0.068734184611 0.02635230  0.00149683  0.0900003 0.7000
                               ***Turning on DIIS***
  2   -157.4598233398  -0.027787388369 0.03765788  0.00249770  0.0331246 0.0000
  3   -157.4978626629  -0.038039323128 0.01802764  0.00103908  0.0496751 0.0000
  4   -157.5101333517  -0.012270688739 0.00601442  0.00032248  0.0096921 0.0000
  5   -157.5107653773  -0.000632025622 0.00178930  0.00011375  0.0022519 0.0000
  6   -157.5108174931  -0.000052115811 0.00151200  0.00007535  0.0007407 0.0000
  7   -157.5108279016  -0.000010408514 0.00036825  0.00001344  0.0001700 0.0000
  8   -157.5108286933  -0.000000791658 0.00013875  0.00000463  0.0000931 0.0000
  9   -157.5108288047  -0.000000111393 0.00006475  0.00000200  0.0000476 0.0000
 10   -157.5108288279  -0.000000023187 0.00002040  0.00000075  0.0000106 0.0000
 11   -157.5108288318  -0.000000003925 0.00001062  0.00000043  0.0000029 0.0000
 12   -157.5108288328  -0.000000001022 0.00000300  0.00000011  0.0000017 0.0000
 13   -157.5108288329  -0.000000000109 0.00000309  0.00000012  0.0000008 0.0000
 14   -157.5108288330  -0.000000000072 0.00000108  0.00000004  0.0000003 0.0000
 15   -157.5108288330  -0.000000000004 0.00000068  0.00000002  0.0000001 0.0000
 16   -157.5108288330   0.000000000007 0.00000011  0.00000000  0.0000001 0.0000
                 **** Energy Check signals convergence ****

 Fermi smearing  (ALPHA): E(HOMO(Eh)) = -0.314466 MUE = -0.086361 gap=   7.699 eV
 Fermi smearing   (BETA): E(HOMO(Eh)) = -0.310044 MUE = -0.185991 gap=   6.737 eV

N_FOD(alpha) =  0.000000
 N_FOD(beta) =  0.000000
       N_FOD =  0.000000

               *****************************************************
               *                     SUCCESS                       *
               *           SCF CONVERGED AFTER  17 CYCLES          *
               *****************************************************

Setting up the final grid:

General Integration Accuracy     IntAcc      ...  4.670
Radial Grid Type                 RadialGrid  ... Gauss-Chebyshev
Angular Grid (max. acc.)         AngularGrid ... Lebedev-302
Angular grid pruning method      GridPruning ... 3 (G Style)
Weight generation scheme         WeightScheme... Becke
Basis function cutoff            BFCut       ...    1.0000e-12
Integration weight cutoff        WCut        ...    1.0000e-14
Grids for H and He will be reduced by one unit

# of grid points (after initial pruning)     ...  55394 (   0.0 sec)
# of grid points (after weights+screening)   ...  51194 (   0.1 sec)
nearest neighbour list constructed           ...    0.0 sec
Grid point re-assignment to atoms done       ...    0.0 sec
Grid point division into batches done        ...    0.2 sec
Reduced shell lists constructed in    0.4 sec

Total number of grid points                  ...    51194
Total number of batches                      ...      806
Average number of points per batch           ...       63
Average number of grid points per atom       ...     3938
Average number of shells per batch           ...    34.97 (83.27%)
Average number of basis functions per batch  ...    62.15 (83.98%)
Average number of large shells per batch     ...    30.11 (86.10%)
Average number of large basis fcns per batch ...    52.96 (85.21%)
Maximum spatial batch extension              ...  18.45, 19.60, 16.11 au
Average spatial batch extension              ...   2.64,  2.67,  2.51 au

Final grid set up in    3.0 sec
Final integration                            ... done (   9.7 sec)
Change in XC energy                          ...    -0.000256395
Integrated number of electrons               ...    32.999834935
Previous integrated no of electrons          ...    32.998728827

----------------
TOTAL SCF ENERGY
----------------

Total Energy       :         -157.51108523 Eh           -4286.09453 eV

Components:
Nuclear Repulsion  :          126.97629940 Eh            3455.20077 eV
Electronic Energy  :         -284.48738463 Eh           -7741.29530 eV
One Electron Energy:         -461.44505547 Eh          -12556.55832 eV
Two Electron Energy:          176.95767084 Eh            4815.26303 eV

Virial components:
Potential Energy   :         -313.40262819 Eh           -8528.11907 eV
Kinetic Energy     :          155.89154296 Eh            4242.02454 eV
Virial Ratio       :            2.01038890


DFT components:
N(Alpha)           :       16.999905746793 electrons
N(Beta)            :       15.999929188094 electrons
N(Total)           :       32.999834934887 electrons
E(X)               :      -18.888243204822 Eh       
E(C)               :       -1.220711580247 Eh       
E(XC)              :      -20.108954785069 Eh       
DFET-embed. en.    :        0.000000000000 Eh       

---------------
SCF CONVERGENCE
---------------

  Last Energy change         ...   -1.6598e-11  Tolerance :   1.0000e-09
  Last MAX-Density change    ...    1.0394e-07  Tolerance :   1.0000e-08
  Last RMS-Density change    ...    4.8208e-09  Tolerance :   1.0000e-09
  Last DIIS Error            ...    2.3229e-08  Tolerance :   1.0000e-08

             **** THE GBW FILE WAS UPDATED (orca3.gbw) ****
             **** DENSITY FILE WAS UPDATED (orca3.scfp) ****
             **** ENERGY FILE WAS UPDATED (orca3.en.tmp) ****
             **** THE GBW FILE WAS UPDATED (orca3.gbw) ****
             **** DENSITY FILE WAS UPDATED (orca3.scfp) ****
----------------
ORBITAL ENERGIES
----------------
                 SPIN UP ORBITALS
  NO   OCC          E(Eh)            E(eV) 
   0   1.0000     -10.185592      -277.1640 
   1   1.0000     -10.181101      -277.0418 
   2   1.0000     -10.174183      -276.8536 
   3   1.0000     -10.165442      -276.6157 
   4   1.0000      -0.803662       -21.8688 
   5   1.0000      -0.674588       -18.3565 
   6   1.0000      -0.666522       -18.1370 
   7   1.0000      -0.546230       -14.8637 
   8   1.0000      -0.462684       -12.5903 
   9   1.0000      -0.430867       -11.7245 
  10   1.0000      -0.429568       -11.6891 
  11   1.0000      -0.389986       -10.6121 
  12   1.0000      -0.380652       -10.3581 
  13   1.0000      -0.346284        -9.4229 
  14   1.0000      -0.329701        -8.9716 
  15   1.0000      -0.314466        -8.5570 
  16   1.0000      -0.227820        -6.1993 
  17   0.0000       0.055099         1.4993 
  18   0.0000       0.088606         2.4111 
  19   0.0000       0.103706         2.8220 
  20   0.0000       0.112637         3.0650 
  21   0.0000       0.119745         3.2584 
  22   0.0000       0.137293         3.7359 
  23   0.0000       0.147510         4.0139 
  24   0.0000       0.156446         4.2571 
  25   0.0000       0.179276         4.8784 
  26   0.0000       0.221116         6.0169 
  27   0.0000       0.259271         7.0551 
  28   0.0000       0.280203         7.6247 
  29   0.0000       0.398796        10.8518 
  30   0.0000       0.430178        11.7058 
  31   0.0000       0.444188        12.0870 
  32   0.0000       0.475144        12.9293 
  33   0.0000       0.488509        13.2930 
  34   0.0000       0.499162        13.5829 
  35   0.0000       0.599655        16.3174 
  36   0.0000       0.617407        16.8005 
  37   0.0000       0.635539        17.2939 
  38   0.0000       0.649155        17.6644 
  39   0.0000       0.660937        17.9850 
  40   0.0000       0.671396        18.2696 
  41   0.0000       0.687533        18.7087 
  42   0.0000       0.692312        18.8388 
  43   0.0000       0.700211        19.0537 
  44   0.0000       0.706524        19.2255 
  45   0.0000       0.715640        19.4735 
  46   0.0000       0.727097        19.7853 
  47   0.0000       0.736027        20.0283 
  48   0.0000       0.740430        20.1481 
  49   0.0000       0.750640        20.4260 
  50   0.0000       0.780594        21.2411 
  51   0.0000       0.858391        23.3580 
  52   0.0000       0.977547        26.6004 
  53   0.0000       1.110642        30.2221 
  54   0.0000       1.410195        38.3733 
  55   0.0000       1.418718        38.6053 
  56   0.0000       1.746985        47.5379 
  57   0.0000       1.754970        47.7552 
  58   0.0000       1.781066        48.4653 
  59   0.0000       1.878902        51.1275 
  60   0.0000       1.893432        51.5229 
  61   0.0000       1.944417        52.9103 
  62   0.0000       1.996603        54.3303 
  63   0.0000       2.034923        55.3731 
  64   0.0000       2.035608        55.3917 
  65   0.0000       2.101949        57.1969 
  66   0.0000       2.138608        58.1945 
  67   0.0000       2.163872        58.8820 
  68   0.0000       2.183841        59.4253 
  69   0.0000       2.421250        65.8856 
  70   0.0000       2.453447        66.7617 
  71   0.0000       2.474679        67.3394 
  72   0.0000       2.697430        73.4008 
  73   0.0000       2.708328        73.6973 

                 SPIN DOWN ORBITALS
  NO   OCC          E(Eh)            E(eV) 
   0   1.0000     -10.181571      -277.0546 
   1   1.0000     -10.172903      -276.8188 
   2   1.0000     -10.170354      -276.7494 
   3   1.0000     -10.165337      -276.6129 
   4   1.0000      -0.797009       -21.6877 
   5   1.0000      -0.672989       -18.3129 
   6   1.0000      -0.644373       -17.5343 
   7   1.0000      -0.539338       -14.6761 
   8   1.0000      -0.459107       -12.4929 
   9   1.0000      -0.425781       -11.5861 
  10   1.0000      -0.422970       -11.5096 
  11   1.0000      -0.383093       -10.4245 
  12   1.0000      -0.378496       -10.2994 
  13   1.0000      -0.342104        -9.3091 
  14   1.0000      -0.325934        -8.8691 
  15   1.0000      -0.310044        -8.4367 
  16   0.0000      -0.062470        -1.6999 
  17   0.0000       0.056604         1.5403 
  18   0.0000       0.090471         2.4618 
  19   0.0000       0.106356         2.8941 
  20   0.0000       0.116294         3.1645 
  21   0.0000       0.123975         3.3735 
  22   0.0000       0.139042         3.7835 
  23   0.0000       0.149622         4.0714 
  24   0.0000       0.157750         4.2926 
  25   0.0000       0.183809         5.0017 
  26   0.0000       0.224448         6.1075 
  27   0.0000       0.262005         7.1295 
  28   0.0000       0.287197         7.8150 
  29   0.0000       0.402472        10.9518 
  30   0.0000       0.431839        11.7509 
  31   0.0000       0.448281        12.1983 
  32   0.0000       0.482023        13.1165 
  33   0.0000       0.496313        13.5054 
  34   0.0000       0.559659        15.2291 
  35   0.0000       0.602047        16.3825 
  36   0.0000       0.629420        17.1274 
  37   0.0000       0.641497        17.4560 
  38   0.0000       0.656497        17.8642 
  39   0.0000       0.663870        18.0648 
  40   0.0000       0.674559        18.3557 
  41   0.0000       0.692864        18.8538 
  42   0.0000       0.700886        19.0721 
  43   0.0000       0.702846        19.1254 
  44   0.0000       0.710037        19.3211 
  45   0.0000       0.718886        19.5619 
  46   0.0000       0.731016        19.8920 
  47   0.0000       0.739326        20.1181 
  48   0.0000       0.746365        20.3096 
  49   0.0000       0.754605        20.5339 
  50   0.0000       0.786242        21.3947 
  51   0.0000       0.866372        23.5752 
  52   0.0000       0.979292        26.6479 
  53   0.0000       1.113646        30.3039 
  54   0.0000       1.416826        38.5538 
  55   0.0000       1.430278        38.9198 
  56   0.0000       1.760743        47.9123 
  57   0.0000       1.777173        48.3593 
  58   0.0000       1.791479        48.7486 
  59   0.0000       1.900231        51.7079 
  60   0.0000       1.929162        52.4952 
  61   0.0000       1.965011        53.4707 
  62   0.0000       2.000603        54.4392 
  63   0.0000       2.041821        55.5608 
  64   0.0000       2.059960        56.0544 
  65   0.0000       2.112775        57.4915 
  66   0.0000       2.146703        58.4147 
  67   0.0000       2.176565        59.2273 
  68   0.0000       2.190903        59.6175 
  69   0.0000       2.433160        66.2096 
  70   0.0000       2.460509        66.9539 
  71   0.0000       2.480703        67.5034 
  72   0.0000       2.703695        73.5713 
  73   0.0000       2.714415        73.8630 

                    ********************************
                    * MULLIKEN POPULATION ANALYSIS *
                    ********************************

------------------------------------------
FOD BASED MULLIKEN REDUCED ORBITAL CHARGES
------------------------------------------
  0 C s       :    -0.000000  s :    -0.000000
      pz      :     0.000000  p :     0.000000
      px      :     0.000000
      py      :     0.000000
      dz2     :     0.000000  d :     0.000000
      dxz     :     0.000000
      dyz     :     0.000000
      dx2y2   :     0.000000
      dxy     :     0.000000
  1 C s       :     0.000000  s :     0.000000
      pz      :     0.000000  p :     0.000000
      px      :     0.000000
      py      :     0.000000
      dz2     :     0.000000  d :     0.000000
      dxz     :     0.000000
      dyz     :    -0.000000
      dx2y2   :     0.000000
      dxy     :     0.000000
  2 C s       :    -0.000000  s :    -0.000000
      pz      :     0.000000  p :     0.000000
      px      :     0.000000
      py      :     0.000000
      dz2     :     0.000000  d :     0.000000
      dxz     :     0.000000
      dyz     :     0.000000
      dx2y2   :     0.000000
      dxy     :     0.000000
  3 C s       :    -0.000000  s :    -0.000000
      pz      :     0.000000  p :     0.000000
      px      :     0.000000
      py      :     0.000000
      dz2     :     0.000000  d :     0.000000
      dxz     :     0.000000
      dyz     :     0.000000
      dx2y2   :     0.000000
      dxy     :     0.000000
  4 H s       :     0.000000  s :     0.000000
  5 H s       :     0.000000  s :     0.000000
  6 H s       :     0.000000  s :     0.000000
  7 H s       :     0.000000  s :     0.000000
  8 H s       :     0.000000  s :     0.000000
  9 H s       :     0.000000  s :     0.000000
 10 H s       :     0.000000  s :     0.000000
 11 H s       :     0.000000  s :     0.000000
 12 H s       :     0.000000  s :     0.000000


                     *******************************
                     * LOEWDIN POPULATION ANALYSIS *
                     *******************************

-------------------------------------------
LOEWDIN ATOMIC CHARGES AND SPIN POPULATIONS
-------------------------------------------
   0 C :   -0.179843   -0.002509
   1 C :   -0.204753    0.958608
   2 C :   -0.305443    0.004462
   3 C :   -0.304582    0.041050
   4 H :    0.113473    0.017871
   5 H :    0.108036   -0.012102
   6 H :    0.105179   -0.014524
   7 H :    0.108646   -0.000790
   8 H :    0.111690    0.000746
   9 H :    0.108248   -0.000219
  10 H :    0.112330    0.001547
  11 H :    0.114295    0.003874
  12 H :    0.112723    0.001986

----------------------------------------------------
LOEWDIN REDUCED ORBITAL CHARGES AND SPIN POPULATIONS
----------------------------------------------------
CHARGE
  0 C s       :     2.867887  s :     2.867887
      pz      :     1.072831  p :     3.196067
      px      :     1.063898
      py      :     1.059338
      dz2     :     0.031608  d :     0.115889
      dxz     :     0.015092
      dyz     :     0.011250
      dx2y2   :     0.026858
      dxy     :     0.031082
  1 C s       :     3.042571  s :     3.042571
      pz      :     1.039885  p :     3.100124
      px      :     1.038265
      py      :     1.021974
      dz2     :     0.022625  d :     0.062057
      dxz     :     0.007844
      dyz     :     0.003644
      dx2y2   :     0.015722
      dxy     :     0.012222
  2 C s       :     2.952746  s :     2.952746
      pz      :     1.104158  p :     3.277218
      px      :     1.094898
      py      :     1.078162
      dz2     :     0.017904  d :     0.075479
      dxz     :     0.019183
      dyz     :     0.005973
      dx2y2   :     0.012873
      dxy     :     0.019547
  3 C s       :     2.956309  s :     2.956309
      pz      :     1.115168  p :     3.273554
      px      :     1.085171
      py      :     1.073215
      dz2     :     0.007485  d :     0.074719
      dxz     :     0.021577
      dyz     :     0.014002
      dx2y2   :     0.009904
      dxy     :     0.021751
  4 H s       :     0.886527  s :     0.886527
  5 H s       :     0.891964  s :     0.891964
  6 H s       :     0.894821  s :     0.894821
  7 H s       :     0.891354  s :     0.891354
  8 H s       :     0.888310  s :     0.888310
  9 H s       :     0.891752  s :     0.891752
 10 H s       :     0.887670  s :     0.887670
 11 H s       :     0.885705  s :     0.885705
 12 H s       :     0.887277  s :     0.887277

SPIN
  0 C s       :    -0.003480  s :    -0.003480
      pz      :    -0.006634  p :    -0.011934
      px      :    -0.004292
      py      :    -0.001008
      dz2     :     0.004248  d :     0.012905
      dxz     :     0.002416
      dyz     :     0.000070
      dx2y2   :     0.000487
      dxy     :     0.005684
  1 C s       :     0.092438  s :     0.092438
      pz      :     0.252670  p :     0.870005
      px      :     0.230822
      py      :     0.386513
      dz2     :    -0.001340  d :    -0.003835
      dxz     :    -0.000097
      dyz     :    -0.000625
      dx2y2   :    -0.001377
      dxy     :    -0.000397
  2 C s       :     0.000624  s :     0.000624
      pz      :     0.000602  p :     0.004123
      px      :     0.003106
      py      :     0.000414
      dz2     :     0.000057  d :    -0.000285
      dxz     :    -0.000081
      dyz     :    -0.000061
      dx2y2   :    -0.000180
      dxy     :    -0.000019
  3 C s       :     0.014249  s :     0.014249
      pz      :     0.001065  p :     0.026389
      px      :     0.015173
      py      :     0.010151
      dz2     :     0.000022  d :     0.000412
      dxz     :    -0.000092
      dyz     :     0.000014
      dx2y2   :     0.000349
      dxy     :     0.000119
  4 H s       :     0.017871  s :     0.017871
  5 H s       :    -0.012102  s :    -0.012102
  6 H s       :    -0.014524  s :    -0.014524
  7 H s       :    -0.000790  s :    -0.000790
  8 H s       :     0.000746  s :     0.000746
  9 H s       :    -0.000219  s :    -0.000219
 10 H s       :     0.001547  s :     0.001547
 11 H s       :     0.003874  s :     0.003874
 12 H s       :     0.001986  s :     0.001986


                      *****************************
                      * MAYER POPULATION ANALYSIS *
                      *****************************

  NA   - Mulliken gross atomic population
  ZA   - Total nuclear charge
  QA   - Mulliken gross atomic charge
  VA   - Mayer's total valence
  BVA  - Mayer's bonded valence
  FA   - Mayer's free valence

  ATOM       NA         ZA         QA         VA         BVA        FA
  0 C      6.1453     6.0000    -0.1453     4.2293     4.2266     0.0027
  1 C      6.1847     6.0000    -0.1847     3.9004     3.0314     0.8690
  2 C      6.2228     6.0000    -0.2228     3.9693     3.9692     0.0000
  3 C      6.2455     6.0000    -0.2455     3.9267     3.9255     0.0013
  4 H      0.9266     1.0000     0.0734     0.9348     0.9344     0.0004
  5 H      0.9087     1.0000     0.0913     0.9539     0.9527     0.0011
  6 H      0.9095     1.0000     0.0905     0.9492     0.9476     0.0016
  7 H      0.9150     1.0000     0.0850     0.9531     0.9531     0.0000
  8 H      0.9075     1.0000     0.0925     0.9577     0.9577     0.0000
  9 H      0.9130     1.0000     0.0870     0.9638     0.9638     0.0000
 10 H      0.9093     1.0000     0.0907     0.9693     0.9693     0.0000
 11 H      0.9081     1.0000     0.0919     0.9525     0.9524     0.0001
 12 H      0.9041     1.0000     0.0959     0.9663     0.9663     0.0000

  Mayer bond orders larger than 0.100000
B(  0-C ,  1-C ) :   1.1121 B(  0-C ,  2-C ) :   1.1141 B(  0-C ,  3-C ) :   1.0611 
B(  0-C ,  4-H ) :   0.9112 B(  1-C ,  5-H ) :   0.9468 B(  1-C ,  6-H ) :   0.9376 
B(  2-C ,  7-H ) :   0.9601 B(  2-C ,  8-H ) :   0.9585 B(  2-C ,  9-H ) :   0.9500 
B(  3-C , 10-H ) :   0.9582 B(  3-C , 11-H ) :   0.9552 B(  3-C , 12-H ) :   0.9548 


-------
TIMINGS
-------

Total SCF time: 0 days 0 hours 5 min 17 sec 

Total time                  ....     317.066 sec
Sum of individual times     ....     252.660 sec  ( 79.7%)

Fock matrix formation       ....     217.447 sec  ( 68.6%)
  XC integration            ....     102.061 sec  ( 46.9% of F)
    Basis function eval.    ....       0.912 sec  (  0.9% of XC)
    Density eval.           ....       0.718 sec  (  0.7% of XC)
    XC-Functional eval.     ....       0.450 sec  (  0.4% of XC)
    XC-Potential eval.      ....       0.937 sec  (  0.9% of XC)
Diagonalization             ....       1.654 sec  (  0.5%)
Density matrix formation    ....      10.125 sec  (  3.2%)
Population analysis         ....      13.668 sec  (  4.3%)
Initial guess               ....       0.233 sec  (  0.1%)
Orbital Transformation      ....       0.000 sec  (  0.0%)
Orbital Orthonormalization  ....       0.000 sec  (  0.0%)
DIIS solution               ....       5.919 sec  (  1.9%)
Grid generation             ....       3.614 sec  (  1.1%)


-------------------------------------------------------------------------------
                          DFT DISPERSION CORRECTION                            
                                                                               
                              DFTD3 V3.1  Rev 1                                
                          USING Becke-Johnson damping                          
-------------------------------------------------------------------------------
The B3LYP functional is recognized
Active option DFTDOPT                   ...         4   

molecular C6(AA) [au] = 1132.474071 


            DFT-D V3
 parameters
 s6 scaling factor         :     1.0000 
 a1 scaling factor         :     0.3981 
 s8 scaling factor         :     1.9889 
 a2 scaling factor         :     4.4211 
 ad hoc parameters k1-k3   :    16.0000     1.3333    -4.0000 

 Edisp/kcal,au: -9.166333127440  -0.014607480092 
 E6   /kcal   :  -4.543777818 
 E8   /kcal   :  -4.622555310 
 % E8         :  50.429711047 

-------------------------   ----------------
Dispersion correction           -0.014607480
-------------------------   ----------------


-------------------------   --------------------
FINAL SINGLE POINT ENERGY      -157.525692708291
-------------------------   --------------------

------------------------------------------------------------------------------
                         ORCA SCF GRADIENT CALCULATION
------------------------------------------------------------------------------

Gradient of the Kohn-Sham DFT energy:
Kohn-Sham wavefunction type      ... UKS
Hartree-Fock exchange scaling    ...    0.200
Number of operators              ...    2
Number of atoms                  ...   13
Basis set dimensions             ...   74
Integral neglect threshold       ... 1.0e-12
Integral primitive cutoff        ... 1.0e-14

Nuclear repulsion gradient       ... done
One Electron Gradient            ... done
Pre-screening matrix             ... done
Starting the two electron gradient:
Two electron gradient done
Exchange-correlation gradient    ... done
Dispersion correction            ... done

------------------
CARTESIAN GRADIENT
------------------

   1   C   :    0.015299773    0.025701507    0.029766463
   2   C   :   -0.021875007   -0.025324271   -0.009709224
   3   C   :   -0.011682614    0.006377875    0.017245188
   4   C   :   -0.012822115   -0.033530047   -0.001708442
   5   H   :    0.001963760    0.000165790   -0.005386213
   6   H   :    0.007868390    0.008357951   -0.002793981
   7   H   :    0.017655889    0.004096240    0.001453669
   8   H   :    0.001577860    0.000292322   -0.010073639
   9   H   :   -0.000647455    0.003121303   -0.006905609
  10   H   :    0.000389048    0.007378608   -0.002939020
  11   H   :   -0.011565015    0.001844036   -0.002379823
  12   H   :    0.002950650    0.003736435   -0.005809207
  13   H   :    0.010886834   -0.002217750   -0.000760161

Difference to translation invariance:
           :    0.0000000000   -0.0000000000   -0.0000000000

Norm of the cartesian gradient     ...    0.0762392094
RMS gradient                       ...    0.0122080438
MAX gradient                       ...    0.0335300473

-------
TIMINGS
-------

Total SCF gradient time            ...        4.493 sec

One electron gradient       ....       0.029 sec  (  0.6%)
Prescreening matrices       ....       0.027 sec  (  0.6%)
Two electron gradient       ....       1.469 sec  ( 32.7%)
XC gradient                 ....       2.650 sec  ( 59.0%)
------------------------------------------------------------------------------
                         ORCA GEOMETRY RELAXATION STEP
------------------------------------------------------------------------------

Reading the OPT-File                    .... done
Getting information on internals        .... done
Copying old internal coords+grads       .... done
Making the new internal coordinates     .... (new redundants).... done
Validating the new internal coordinates .... (new redundants).... done
Calculating the B-matrix                .... done
Calculating the G,G- and P matrices     .... done
Transforming gradient to internals      .... done
Projecting the internal gradient        .... done
Number of atoms                         ....  13
Number of internal coordinates          ....  57
Current Energy                          ....  -157.525692708 Eh
Current gradient norm                   ....     0.076239209 Eh/bohr
Maximum allowed component of the step   ....  0.300
Current trust radius                    ....  0.300
Evaluating the initial hessian          ....  (Almloef) done
Projecting the Hessian                  .... done
Forming the augmented Hessian           .... done
Diagonalizing the augmented Hessian     .... done
Last element of RFO vector              ....  0.948214499
Lowest eigenvalues of augmented Hessian:
 -0.014726997  0.012421446  0.012926784  0.014121979  0.062762829
Length of the computed step             ....  0.334977690
Warning: the length of the step is outside the trust region - taking restricted step instead
The input lambda is                     ....    -0.014727
   iter:   1  x=   -0.021640  g=    3.213000 f(x)=     0.022210
   iter:   2  x=   -0.023516  g=    2.160528 f(x)=     0.004053
   iter:   3  x=   -0.023607  g=    1.973503 f(x)=     0.000180
   iter:   4  x=   -0.023607  g=    1.965121 f(x)=     0.000000
   iter:   5  x=   -0.023607  g=    1.965103 f(x)=     0.000000
   iter:   6  x=   -0.023607  g=    1.965103 f(x)=    -0.000000
The output lambda is                    ....    -0.023607 (6 iterations)
The final length of the internal step   ....  0.300000000
Converting the step to cartesian space:
 Initial RMS(Int)=    0.0397359707
Transforming coordinates:
 Iter   0:  RMS(Cart)=    0.0587574859 RMS(Int)=    0.8212096411
 Iter   1:  RMS(Cart)=    0.0034394493 RMS(Int)=    0.0027764156
 Iter   2:  RMS(Cart)=    0.0003446230 RMS(Int)=    0.0002342715
 Iter   3:  RMS(Cart)=    0.0000506599 RMS(Int)=    0.0000438823
 Iter   4:  RMS(Cart)=    0.0000057872 RMS(Int)=    0.0000037918
 Iter   5:  RMS(Cart)=    0.0000008463 RMS(Int)=    0.0000007225
 Iter   6:  RMS(Cart)=    0.0000000968 RMS(Int)=    0.0000000670
done
Storing new coordinates                 .... done

                                .--------------------.
          ----------------------|Geometry convergence|-------------------------
          Item                value                   Tolerance       Converged
          ---------------------------------------------------------------------
          RMS gradient        0.0079405046            0.0001000000      NO
          MAX gradient        0.0329011744            0.0003000000      NO
          RMS step            0.0397359707            0.0020000000      NO
          MAX step            0.1077868597            0.0040000000      NO
          ........................................................
          Max(Bonds)      0.0394      Max(Angles)    6.18
          Max(Dihed)        5.78      Max(Improp)    0.00
          ---------------------------------------------------------------------

The optimization has not yet converged - more geometry cycles are needed


    ---------------------------------------------------------------------------
                         Redundant Internal Coordinates
                            (Angstroem and degrees)

        Definition                    Value    dE/dq     Step     New-Value
    ----------------------------------------------------------------------------
     1. B(C   1,C   0)                1.5052 -0.007034  0.0086    1.5138   
     2. B(C   2,C   0)                1.5107 -0.020223  0.0252    1.5360   
     3. B(C   3,C   0)                1.4995 -0.032901  0.0394    1.5390   
     4. B(H   4,C   0)                1.1208  0.005146 -0.0079    1.1129   
     5. B(H   5,C   1)                1.0953 -0.005555  0.0078    1.1031   
     6. B(H   6,C   1)                1.0980 -0.003873  0.0055    1.1035   
     7. B(H   7,C   2)                1.1198  0.007636 -0.0117    1.1081   
     8. B(H   8,C   2)                1.1035 -0.000618  0.0009    1.1044   
     9. B(H   9,C   2)                1.1004 -0.002649  0.0038    1.1042   
    10. B(H  10,C   3)                1.1186  0.007846 -0.0119    1.1067   
    11. B(H  11,C   3)                1.1187  0.007472 -0.0114    1.1073   
    12. B(H  12,C   3)                1.1179  0.007869 -0.0119    1.1059   
    13. A(C   1,C   0,H   4)          105.51 -0.001435    0.47    105.98   
    14. A(C   2,C   0,H   4)          105.87  0.000297    0.39    106.26   
    15. A(C   1,C   0,C   2)          113.06  0.000531   -0.40    112.67   
    16. A(C   1,C   0,C   3)          113.46  0.003633   -1.01    112.45   
    17. A(C   2,C   0,C   3)          111.93 -0.002491    0.22    112.15   
    18. A(C   3,C   0,H   4)          106.23 -0.000815    0.53    106.76   
    19. A(H   5,C   1,H   6)          113.58  0.009440    1.69    115.26   
    20. A(C   0,C   1,H   6)          106.89 -0.026570    6.18    113.07   
    21. A(C   0,C   1,H   5)          114.54 -0.009175    3.16    117.70   
    22. A(H   7,C   2,H   9)          109.26  0.005266   -0.91    108.35   
    23. A(C   0,C   2,H   9)          110.05 -0.005112    0.56    110.61   
    24. A(H   7,C   2,H   8)          105.11  0.000410    0.75    105.86   
    25. A(C   0,C   2,H   8)          109.99 -0.003866    0.66    110.64   
    26. A(H   8,C   2,H   9)          113.42  0.008356   -2.17    111.25   
    27. A(C   0,C   2,H   7)          108.81 -0.005191    1.23    110.05   
    28. A(H  11,C   3,H  12)          104.98 -0.002627    0.64    105.63   
    29. A(H  10,C   3,H  12)          111.60  0.007588   -2.03    109.57   
    30. A(C   0,C   3,H  12)          113.60  0.003691   -0.83    112.77   
    31. A(H  10,C   3,H  11)          105.78  0.002682    0.12    105.90   
    32. A(C   0,C   3,H  11)          111.37  0.000353    0.28    111.65   
    33. A(C   0,C   3,H  10)          109.19 -0.011185    1.80    110.99   
    34. D(H   6,C   1,C   0,C   3)     48.05 -0.008143    5.78     53.83   
    35. D(H   6,C   1,C   0,H   4)    -67.85 -0.008161    5.38    -62.47   
    36. D(H   6,C   1,C   0,C   2)    176.90 -0.007923    4.83    181.73   
    37. D(H   5,C   1,C   0,H   4)    165.41  0.007199   -4.02    161.39   
    38. D(H   5,C   1,C   0,C   2)     50.16  0.007437   -4.57     45.59   
    39. D(H   5,C   1,C   0,C   3)    -78.69  0.007216   -3.62    -82.31   
    40. D(H   7,C   2,C   0,C   1)    160.54 -0.003948    2.72    163.27   
    41. D(H   9,C   2,C   0,C   1)    -79.76 -0.003770    2.70    -77.06   
    42. D(H   8,C   2,C   0,H   4)    -69.14  0.001819    0.19    -68.95   
    43. D(H   8,C   2,C   0,C   1)     45.90  0.000546    0.79     46.68   
    44. D(H   7,C   2,C   0,H   4)     45.51 -0.002675    2.13     47.63   
    45. D(H   7,C   2,C   0,C   3)    -69.82 -0.000619    1.16    -68.66   
    46. D(H   9,C   2,C   0,C   3)     49.88 -0.000442    1.14     51.01   
    47. D(H   9,C   2,C   0,H   4)    165.20 -0.002498    2.10    167.30   
    48. D(H   8,C   2,C   0,C   3)    175.54  0.003875   -0.78    174.76   
    49. D(H  12,C   3,C   0,H   4)   -135.73  0.002835   -2.41   -138.14   
    50. D(H  12,C   3,C   0,C   1)    108.80  0.003155   -2.77    106.04   
    51. D(H  11,C   3,C   0,H   4)    -17.44  0.002216   -1.95    -19.39   
    52. D(H  11,C   3,C   0,C   2)     97.66  0.000825   -1.06     96.60   
    53. D(H  11,C   3,C   0,C   1)   -132.91  0.002536   -2.31   -135.22   
    54. D(H  10,C   3,C   0,H   4)     99.01 -0.001125   -0.54     98.47   
    55. D(H  12,C   3,C   0,C   2)    -20.63  0.001445   -1.52    -22.15   
    56. D(H  10,C   3,C   0,C   2)   -145.89 -0.002515    0.34   -145.55   
    57. D(H  10,C   3,C   0,C   1)    -16.46 -0.000805   -0.90    -17.36   
    ----------------------------------------------------------------------------

Time needed for optimization step       :     2.69 sec

         *************************************************************
         *                GEOMETRY OPTIMIZATION CYCLE   2            *
         *************************************************************
---------------------------------
CARTESIAN COORDINATES (ANGSTROEM)
---------------------------------
  C     -0.042192    0.029546   -0.398014
  C     -1.433996   -0.005753    0.196290
  C      0.745203   -1.263402   -0.138298
  C      0.745222    1.282813    0.023537
  H     -0.181183    0.093548   -1.500368
  H     -1.534991   -0.381578    1.228424
  H     -2.011860    0.909495   -0.018597
  H      1.613710   -1.323090   -0.823870
  H      0.123910   -2.148872   -0.361116
  H      1.119850   -1.288374    0.900066
  H      0.066588    2.063429    0.416982
  H      1.270721    1.743056   -0.835644
  H      1.530732    1.063710    0.770566

----------------------------
CARTESIAN COORDINATES (A.U.)
----------------------------
  NO LB      ZA    FRAG     MASS         X           Y           Z
   0 C     6.0000    0    12.011   -0.079731    0.055833   -0.752137
   1 C     6.0000    0    12.011   -2.709860   -0.010872    0.370934
   2 C     6.0000    0    12.011    1.408230   -2.387483   -0.261345
   3 C     6.0000    0    12.011    1.408265    2.424165    0.044479
   4 H     1.0000    0     1.008   -0.342387    0.176780   -2.835284
   5 H     1.0000    0     1.008   -2.900712   -0.721078    2.321384
   6 H     1.0000    0     1.008   -3.801864    1.718696   -0.035142
   7 H     1.0000    0     1.008    3.049470   -2.500277   -1.556889
   8 H     1.0000    0     1.008    0.234157   -4.060780   -0.682411
   9 H     1.0000    0     1.008    2.116211   -2.434674    1.700878
  10 H     1.0000    0     1.008    0.125833    3.899316    0.787982
  11 H     1.0000    0     1.008    2.401315    3.293899   -1.579139
  12 H     1.0000    0     1.008    2.892665    2.010120    1.456159

--------------------------------
INTERNAL COORDINATES (ANGSTROEM)
--------------------------------
 C      0   0   0     0.000000000000     0.00000000     0.00000000
 C      1   0   0     1.513790874784     0.00000000     0.00000000
 C      1   2   0     1.535954488939   112.66351556     0.00000000
 C      1   2   3     1.538961748803   112.44971821   232.08684663
 H      1   2   3     1.112923511551   105.98468965   115.79511228
 H      2   1   3     1.103061549441   117.35318277    45.43521834
 H      2   1   3     1.103531246918   112.68497291   181.89586965
 H      3   1   2     1.108095934362   110.03093730   163.27333660
 H      3   1   2     1.104405200562   110.63465993    46.67794869
 H      3   1   2     1.104166111053   110.60928077   282.93843239
 H      4   1   2     1.106663867615   110.98094538   342.64844991
 H      4   1   2     1.107324202461   111.63878227   224.77769187
 H      4   1   2     1.105931649176   112.77412865   106.03624036

---------------------------
INTERNAL COORDINATES (A.U.)
---------------------------
 C      0   0   0     0.000000000000     0.00000000     0.00000000
 C      1   0   0     2.860650177370     0.00000000     0.00000000
 C      1   2   0     2.902533338262   112.66351556     0.00000000
 C      1   2   3     2.908216235818   112.44971821   232.08684663
 H      1   2   3     2.103120644834   105.98468965   115.79511228
 H      2   1   3     2.084484237302   117.35318277    45.43521834
 H      2   1   3     2.085371836901   112.68497291   181.89586965
 H      3   1   2     2.093997846055   110.03093730   163.27333660
 H      3   1   2     2.087023369941   110.63465993    46.67794869
 H      3   1   2     2.086571556246   110.60928077   282.93843239
 H      4   1   2     2.091291632099   110.98094538   342.64844991
 H      4   1   2     2.092539484114   111.63878227   224.77769187
 H      4   1   2     2.089907939779   112.77412865   106.03624036


Diagonalization of the overlap matrix:
Smallest eigenvalue                        ... 2.265e-03
Time for diagonalization                   ...    0.001 sec
Threshold for overlap eigenvalues          ... 1.000e-08
Number of eigenvalues below threshold      ... 0
Time for construction of square roots      ...    2.152 sec
Total time needed                          ...    2.153 sec

-------------------
DFT GRID GENERATION
-------------------

General Integration Accuracy     IntAcc      ...  4.340
Radial Grid Type                 RadialGrid  ... Gauss-Chebyshev
Angular Grid (max. acc.)         AngularGrid ... Lebedev-110
Angular grid pruning method      GridPruning ... 3 (G Style)
Weight generation scheme         WeightScheme... Becke
Basis function cutoff            BFCut       ...    1.0000e-12
Integration weight cutoff        WCut        ...    1.0000e-14
Grids for H and He will be reduced by one unit

# of grid points (after initial pruning)     ...  13770 (   0.0 sec)
# of grid points (after weights+screening)   ...  12935 (   0.0 sec)
nearest neighbour list constructed           ...    0.0 sec
Grid point re-assignment to atoms done       ...    0.0 sec
Grid point division into batches done        ...    0.0 sec
Reduced shell lists constructed in    0.1 sec

Total number of grid points                  ...    12935
Total number of batches                      ...      210
Average number of points per batch           ...       61
Average number of grid points per atom       ...      995
Average number of shells per batch           ...    37.22 (88.63%)
Average number of basis functions per batch  ...    66.38 (89.70%)
Average number of large shells per batch     ...    32.53 (87.39%)
Average number of large basis fcns per batch ...    57.52 (86.65%)
Maximum spatial batch extension              ...  20.69, 21.93, 22.76 au
Average spatial batch extension              ...   4.28,  4.15,  4.12 au

Time for grid setup =    2.115 sec

--------------
SCF ITERATIONS
--------------
ITER       Energy         Delta-E        Max-DP      RMS-DP      [F,P]     Damp
               ***  Starting incremental Fock matrix formation  ***
  0   -157.5179952444   0.000000000000 0.00369518  0.00016508  0.0199410 0.7000
  1   -157.5186001628  -0.000604918386 0.00346708  0.00014934  0.0143395 0.7000
                               ***Turning on DIIS***
  2   -157.5190717331  -0.000471570242 0.00907327  0.00038924  0.0099253 0.0000
  3   -157.5202777756  -0.001206042591 0.00249466  0.00008538  0.0019405 0.0000
  4   -157.5203130542  -0.000035278524 0.00222163  0.00007816  0.0009553 0.0000
  5   -157.5203245969  -0.000011542715 0.00045412  0.00001954  0.0003305 0.0000
  6   -157.5203257879  -0.000001191022 0.00026144  0.00000956  0.0001827 0.0000
  7   -157.5203260439  -0.000000255938 0.00003397  0.00000142  0.0000199 0.0000
  8   -157.5203260507  -0.000000006895 0.00000972  0.00000051  0.0000145 0.0000
  9   -157.5203260519  -0.000000001186 0.00000367  0.00000016  0.0000054 0.0000
 10   -157.5203260521  -0.000000000153 0.00000129  0.00000007  0.0000010 0.0000
                 **** Energy Check signals convergence ****

 Fermi smearing  (ALPHA): E(HOMO(Eh)) = -0.319934 MUE = -0.079670 gap=   7.488 eV
 Fermi smearing   (BETA): E(HOMO(Eh)) = -0.316250 MUE = -0.184807 gap=   7.129 eV

N_FOD(alpha) =  0.000000
 N_FOD(beta) =  0.000000
       N_FOD =  0.000000

               *****************************************************
               *                     SUCCESS                       *
               *           SCF CONVERGED AFTER  11 CYCLES          *
               *****************************************************

Setting up the final grid:

General Integration Accuracy     IntAcc      ...  4.670
Radial Grid Type                 RadialGrid  ... Gauss-Chebyshev
Angular Grid (max. acc.)         AngularGrid ... Lebedev-302
Angular grid pruning method      GridPruning ... 3 (G Style)
Weight generation scheme         WeightScheme... Becke
Basis function cutoff            BFCut       ...    1.0000e-12
Integration weight cutoff        WCut        ...    1.0000e-14
Grids for H and He will be reduced by one unit

# of grid points (after initial pruning)     ...  55394 (   0.0 sec)
# of grid points (after weights+screening)   ...  51277 (   0.1 sec)
nearest neighbour list constructed           ...    0.0 sec
Grid point re-assignment to atoms done       ...    0.0 sec
Grid point division into batches done        ...    0.1 sec
Reduced shell lists constructed in    0.3 sec

Total number of grid points                  ...    51277
Total number of batches                      ...      809
Average number of points per batch           ...       63
Average number of grid points per atom       ...     3944
Average number of shells per batch           ...    34.83 (82.94%)
Average number of basis functions per batch  ...    61.92 (83.67%)
Average number of large shells per batch     ...    29.82 (85.60%)
Average number of large basis fcns per batch ...    52.38 (84.60%)
Maximum spatial batch extension              ...  16.97, 18.80, 16.10 au
Average spatial batch extension              ...   2.64,  2.68,  2.53 au

Final grid set up in    3.9 sec
Final integration                            ... done (  17.7 sec)
Change in XC energy                          ...    -0.000522914
Integrated number of electrons               ...    32.999883891
Previous integrated no of electrons          ...    32.997971091
Total Energy       :         -157.52084897 Eh           -4286.36021 eV
  Last Energy change         ...   -3.2372e-11  Tolerance :   1.0000e-09
  Last MAX-Density change    ...    6.8054e-07  Tolerance :   1.0000e-08
             **** THE GBW FILE WAS UPDATED (orca3.gbw) ****
             **** DENSITY FILE WAS UPDATED (orca3.scfp) ****
             **** ENERGY FILE WAS UPDATED (orca3.en.tmp) ****
             **** THE GBW FILE WAS UPDATED (orca3.gbw) ****
             **** DENSITY FILE WAS UPDATED (orca3.scfp) ****
Total SCF time: 0 days 0 hours 5 min 59 sec 


-------------------------------------------------------------------------------
                          DFT DISPERSION CORRECTION                            
                                                                               
                              DFTD3 V3.1  Rev 1                                
                          USING Becke-Johnson damping                          
-------------------------------------------------------------------------------
-------------------------   ----------------
Dispersion correction           -0.014381190
-------------------------   ----------------


-------------------------   --------------------
FINAL SINGLE POINT ENERGY      -157.535230156707
-------------------------   --------------------

------------------------------------------------------------------------------
                         ORCA SCF GRADIENT CALCULATION
------------------------------------------------------------------------------

Gradient of the Kohn-Sham DFT energy:
Kohn-Sham wavefunction type      ... UKS
Hartree-Fock exchange scaling    ...    0.200
Number of operators              ...    2
Number of atoms                  ...   13
Basis set dimensions             ...   74
Integral neglect threshold       ... 1.0e-12
Integral primitive cutoff        ... 1.0e-14

Nuclear repulsion gradient       ... done
One Electron Gradient            ... done
Pre-screening matrix             ... done
Starting the two electron gradient:
Two electron gradient done
Exchange-correlation gradient    ... done
Dispersion correction            ... done

------------------
CARTESIAN GRADIENT
------------------

   1   C   :    0.008915157    0.013278820    0.010351259
   2   C   :   -0.015646190   -0.016211504   -0.008210227
   3   C   :   -0.002126331   -0.002500807    0.008036051
   4   C   :   -0.003919370   -0.010492792    0.002685917
   5   H   :    0.001047932   -0.000887965   -0.002157146
   6   H   :    0.003186564    0.004069618    0.002910188
   7   H   :    0.006491491    0.006034891    0.000986688
   8   H   :   -0.001443128   -0.001044322   -0.003742581
   9   H   :    0.000315109    0.000853865   -0.004288971
  10   H   :    0.001578159    0.004081531   -0.000968814
  11   H   :   -0.002906011    0.000229665   -0.002177125
  12   H   :    0.000227086    0.002115526    0.000223158
  13   H   :    0.004279531    0.000473474   -0.003648397

Difference to translation invariance:
           :    0.0000000000   -0.0000000000   -0.0000000000

Norm of the cartesian gradient     ...    0.0370596939
RMS gradient                       ...    0.0059343004
MAX gradient                       ...    0.0162115040

-------
TIMINGS
-------

Total SCF gradient time            ...        3.912 sec

One electron gradient       ....       0.028 sec  (  0.7%)
Prescreening matrices       ....       0.026 sec  (  0.7%)
Two electron gradient       ....       1.338 sec  ( 34.2%)
XC gradient                 ....       2.339 sec  ( 59.8%)
------------------------------------------------------------------------------
                         ORCA GEOMETRY RELAXATION STEP
------------------------------------------------------------------------------

Reading the OPT-File                    .... done
Getting information on internals        .... done
Copying old internal coords+grads       .... done
Making the new internal coordinates     .... (new redundants).... done
Validating the new internal coordinates .... (new redundants).... done
Calculating the B-matrix                .... done
Calculating the G,G- and P matrices     .... done
Transforming gradient to internals      .... done
Projecting the internal gradient        .... done
Number of atoms                         ....  13
Number of internal coordinates          ....  57
Current Energy                          ....  -157.535230157 Eh
Current gradient norm                   ....     0.037059694 Eh/bohr
Maximum allowed component of the step   ....  0.300
Current trust radius                    ....  0.300
Updating the Hessian (BFGS)             .... done
Forming the augmented Hessian           .... done
Diagonalizing the augmented Hessian     .... done
Last element of RFO vector              ....  0.948746910
Lowest eigenvalues of augmented Hessian:
 -0.005366142  0.012421093  0.012933084  0.014228876  0.056438570
Length of the computed step             ....  0.333109770
Warning: the length of the step is outside the trust region - taking restricted step instead
The input lambda is                     ....    -0.005366
   iter:   1  x=   -0.008250  g=    7.267765 f(x)=     0.020962
   iter:   2  x=   -0.008898  g=    5.145868 f(x)=     0.003330
   iter:   3  x=   -0.008921  g=    4.801310 f(x)=     0.000113
   iter:   4  x=   -0.008921  g=    4.789409 f(x)=     0.000000
   iter:   5  x=   -0.008921  g=    4.789394 f(x)=     0.000000
   iter:   6  x=   -0.008921  g=    4.789394 f(x)=     0.000000
The output lambda is                    ....    -0.008921 (6 iterations)
The final length of the internal step   ....  0.300000000
Converting the step to cartesian space:
 Initial RMS(Int)=    0.0397359707
Transforming coordinates:
 Iter   0:  RMS(Cart)=    0.0441176311 RMS(Int)=    0.0401951831
 Iter   1:  RMS(Cart)=    0.0026056992 RMS(Int)=    0.0020158918
 Iter   2:  RMS(Cart)=    0.0001944432 RMS(Int)=    0.0001298234
 Iter   3:  RMS(Cart)=    0.0000242871 RMS(Int)=    0.0000204359
 Iter   4:  RMS(Cart)=    0.0000021477 RMS(Int)=    0.0000015467
 Iter   5:  RMS(Cart)=    0.0000002791 RMS(Int)=    0.0000002208
 Iter   6:  RMS(Cart)=    0.0000000255 RMS(Int)=    0.0000000210
done
Storing new coordinates                 .... done

                                .--------------------.
          ----------------------|Geometry convergence|-------------------------
          Item                value                   Tolerance       Converged
          ---------------------------------------------------------------------
          Energy change      -0.0095374484            0.0000050000      NO
          RMS gradient        0.0029254453            0.0001000000      NO
          MAX gradient        0.0109218812            0.0003000000      NO
          RMS step            0.0397359707            0.0020000000      NO
          MAX step            0.0965840606            0.0040000000      NO
          ........................................................
          Max(Bonds)      0.0186      Max(Angles)    4.74
          Max(Dihed)        5.53      Max(Improp)    0.00
          ---------------------------------------------------------------------

The optimization has not yet converged - more geometry cycles are needed


    ---------------------------------------------------------------------------
                         Redundant Internal Coordinates
                            (Angstroem and degrees)

        Definition                    Value    dE/dq     Step     New-Value
    ----------------------------------------------------------------------------
     1. B(C   1,C   0)                1.5138  0.003933 -0.0073    1.5065   
     2. B(C   2,C   0)                1.5360 -0.002202  0.0060    1.5420   
     3. B(C   3,C   0)                1.5390 -0.008225  0.0186    1.5575   
     4. B(H   4,C   0)                1.1129  0.001955 -0.0054    1.1076   
     5. B(H   5,C   1)                1.1031  0.001039 -0.0019    1.1011   
     6. B(H   6,C   1)                1.1035  0.001423 -0.0030    1.1005   
     7. B(H   7,C   2)                1.1081  0.001237 -0.0037    1.1044   
     8. B(H   8,C   2)                1.1044  0.000012  0.0000    1.1044   
     9. B(H   9,C   2)                1.1042 -0.000475  0.0013    1.1055   
    10. B(H  10,C   3)                1.1067  0.001164 -0.0036    1.1031   
    11. B(H  11,C   3)                1.1073  0.000811 -0.0026    1.1047   
    12. B(H  12,C   3)                1.1059  0.000492 -0.0019    1.1041   
    13. A(C   1,C   0,H   4)          105.98 -0.001102    0.98    106.96   
    14. A(C   2,C   0,H   4)          106.26 -0.000624    0.78    107.04   
    15. A(C   1,C   0,C   2)          112.66  0.000734   -0.63    112.03   
    16. A(C   1,C   0,C   3)          112.45  0.000999   -0.83    111.62   
    17. A(C   2,C   0,C   3)          112.14 -0.000147   -0.40    111.74   
    18. A(C   3,C   0,H   4)          106.76 -0.000081    0.40    107.16   
    19. A(H   5,C   1,H   6)          114.64  0.004413    1.55    116.18   
    20. A(C   0,C   1,H   6)          112.68 -0.010922    4.74    117.42   
    21. A(C   0,C   1,H   5)          117.35 -0.002376    2.14    119.49   
    22. A(H   7,C   2,H   9)          108.34  0.002037   -0.58    107.76   
    23. A(C   0,C   2,H   9)          110.61 -0.002451    0.37    110.98   
    24. A(H   7,C   2,H   8)          105.84 -0.001125    1.26    107.10   
    25. A(C   0,C   2,H   8)          110.63 -0.001091    0.31    110.95   
    26. A(H   8,C   2,H   9)          111.25  0.004273   -2.15    109.10   
    27. A(C   0,C   2,H   7)          110.03 -0.001547    0.89    110.92   
    28. A(H  11,C   3,H  12)          105.63 -0.003070    1.21    106.84   
    29. A(H  10,C   3,H  12)          109.58  0.002660   -1.67    107.91   
    30. A(C   0,C   3,H  12)          112.77  0.002985   -1.11    111.66   
    31. A(H  10,C   3,H  11)          105.88 -0.000483    0.74    106.62   
    32. A(C   0,C   3,H  11)          111.64  0.001701   -0.10    111.54   
    33. A(C   0,C   3,H  10)          110.98 -0.003881    1.02    112.00   
    34. D(H   6,C   1,C   0,C   3)     53.98 -0.005016    5.53     59.52   
    35. D(H   6,C   1,C   0,H   4)    -62.31 -0.004777    4.89    -57.42   
    36. D(H   6,C   1,C   0,C   2)   -178.10 -0.003744    3.68   -174.43   
    37. D(H   5,C   1,C   0,H   4)    161.23  0.003859   -3.60    157.63   
    38. D(H   5,C   1,C   0,C   2)     45.44  0.004892   -4.80     40.63   
    39. D(H   5,C   1,C   0,C   3)    -82.48  0.003620   -2.95    -85.43   
    40. D(H   7,C   2,C   0,C   1)    163.27 -0.002729    3.92    167.19   
    41. D(H   9,C   2,C   0,C   1)    -77.06 -0.002742    3.99    -73.07   
    42. D(H   8,C   2,C   0,H   4)    -68.95  0.001551    0.39    -68.57   
    43. D(H   8,C   2,C   0,C   1)     46.68  0.000232    1.71     48.39   
    44. D(H   7,C   2,C   0,H   4)     47.64 -0.001410    2.60     50.24   
    45. D(H   7,C   2,C   0,C   3)    -68.65 -0.000861    1.86    -66.79   
    46. D(H   9,C   2,C   0,C   3)     51.01 -0.000875    1.93     52.95   
    47. D(H   9,C   2,C   0,H   4)    167.31 -0.001423    2.67    169.97   
    48. D(H   8,C   2,C   0,C   3)    174.75  0.002100   -0.34    174.41   
    49. D(H  12,C   3,C   0,H   4)   -138.14  0.002016   -3.58   -141.72   
[...]

             **** THE GBW FILE WAS UPDATED (orca3.gbw) ****
             **** DENSITY FILE WAS UPDATED (orca3.scfp) ****
             **** ENERGY FILE WAS UPDATED (orca3.en.tmp) ****
             **** THE GBW FILE WAS UPDATED (orca3.gbw) ****
             **** DENSITY FILE WAS UPDATED (orca3.scfp) ****
----------------
ORBITAL ENERGIES
----------------
                 SPIN UP ORBITALS
  NO   OCC          E(Eh)            E(eV) 
   0   1.0000     -10.187662      -277.2204 
   1   1.0000     -10.179900      -277.0092 
   2   1.0000     -10.170119      -276.7430 
   3   1.0000     -10.167340      -276.6674 
   4   1.0000      -0.793237       -21.5851 
   5   1.0000      -0.671281       -18.2665 
   6   1.0000      -0.661083       -17.9890 
   7   1.0000      -0.549843       -14.9620 
   8   1.0000      -0.461246       -12.5511 
   9   1.0000      -0.432250       -11.7621 
  10   1.0000      -0.423065       -11.5122 
  11   1.0000      -0.386081       -10.5058 
  12   1.0000      -0.376845       -10.2545 
  13   1.0000      -0.345026        -9.3886 
  14   1.0000      -0.339120        -9.2279 
  15   1.0000      -0.328153        -8.9295 
  16   1.0000      -0.201484        -5.4827 
  17   0.0000       0.058819         1.6005 
  18   0.0000       0.098203         2.6722 
  19   0.0000       0.105943         2.8829 
  20   0.0000       0.112742         3.0679 
  21   0.0000       0.122793         3.3414 
  22   0.0000       0.140486         3.8228 
  23   0.0000       0.144754         3.9389 
  24   0.0000       0.164737         4.4827 
  25   0.0000       0.175921         4.7871 
  26   0.0000       0.209597         5.7034 
  27   0.0000       0.246408         6.7051 
  28   0.0000       0.260028         7.0757 
  29   0.0000       0.398791        10.8517 
  30   0.0000       0.419428        11.4132 
  31   0.0000       0.425707        11.5841 
  32   0.0000       0.446701        12.1554 
  33   0.0000       0.476705        12.9718 
  34   0.0000       0.499310        13.5869 
  35   0.0000       0.574377        15.6296 
  36   0.0000       0.604358        16.4454 
  37   0.0000       0.642483        17.4829 
  38   0.0000       0.660357        17.9692 
  39   0.0000       0.663684        18.0598 
  40   0.0000       0.665782        18.1168 
  41   0.0000       0.693621        18.8744 
  42   0.0000       0.703177        19.1344 
  43   0.0000       0.706058        19.2128 
  44   0.0000       0.709770        19.3138 
  45   0.0000       0.723196        19.6792 
  46   0.0000       0.726639        19.7728 
  47   0.0000       0.737245        20.0614 
  48   0.0000       0.752662        20.4810 
  49   0.0000       0.756688        20.5905 
  50   0.0000       0.855965        23.2920 
  51   0.0000       0.933420        25.3997 
  52   0.0000       1.036893        28.2153 
  53   0.0000       1.089212        29.6390 
  54   0.0000       1.398373        38.0517 
  55   0.0000       1.517991        41.3066 
  56   0.0000       1.672454        45.5098 
  57   0.0000       1.742665        47.4203 
  58   0.0000       1.755771        47.7770 
  59   0.0000       1.817531        49.4575 
  60   0.0000       1.909093        51.9491 
  61   0.0000       1.934653        52.6446 
  62   0.0000       1.978544        53.8389 
  63   0.0000       2.017554        54.9004 
  64   0.0000       2.046328        55.6834 
  65   0.0000       2.078436        56.5571 
  66   0.0000       2.140322        58.2411 
  67   0.0000       2.146600        58.4120 
  68   0.0000       2.175717        59.2043 
  69   0.0000       2.422789        65.9274 
  70   0.0000       2.432398        66.1889 
  71   0.0000       2.496055        67.9211 
  72   0.0000       2.671072        72.6836 
  73   0.0000       2.682776        73.0020 

                 SPIN DOWN ORBITALS
  NO   OCC          E(Eh)            E(eV) 
   0   1.0000     -10.188579      -277.2453 
   1   1.0000     -10.168672      -276.7036 
   2   1.0000     -10.167182      -276.6631 
   3   1.0000     -10.165274      -276.6112 
   4   1.0000      -0.785898       -21.3854 
   5   1.0000      -0.669625       -18.2214 
   6   1.0000      -0.637266       -17.3409 
   7   1.0000      -0.541012       -14.7217 
   8   1.0000      -0.456607       -12.4249 
   9   1.0000      -0.429441       -11.6857 
  10   1.0000      -0.416351       -11.3295 
  11   1.0000      -0.383609       -10.4385 
  12   1.0000      -0.373273       -10.1573 
  13   1.0000      -0.338121        -9.2007 
  14   1.0000      -0.334651        -9.1063 
  15   1.0000      -0.325706        -8.8629 
  16   0.0000      -0.044722        -1.2169 
  17   0.0000       0.060446         1.6448 
  18   0.0000       0.099557         2.7091 
  19   0.0000       0.111531         3.0349 
  20   0.0000       0.116697         3.1755 
  21   0.0000       0.125419         3.4128 
  22   0.0000       0.141624         3.8538 
  23   0.0000       0.146752         3.9933 
  24   0.0000       0.165928         4.5151 
  25   0.0000       0.177675         4.8348 
  26   0.0000       0.213094         5.7986 
  27   0.0000       0.248210         6.7541 
  28   0.0000       0.268093         7.2952 
  29   0.0000       0.401226        10.9179 
  30   0.0000       0.424147        11.5416 
  31   0.0000       0.432226        11.7615 
  32   0.0000       0.450580        12.2609 
  33   0.0000       0.484597        13.1865 
  34   0.0000       0.547567        14.9001 
  35   0.0000       0.593669        16.1545 
  36   0.0000       0.613808        16.7026 
  37   0.0000       0.647408        17.6169 
  38   0.0000       0.665314        18.1041 
  39   0.0000       0.666641        18.1402 
  40   0.0000       0.671797        18.2805 
  41   0.0000       0.696848        18.9622 
  42   0.0000       0.704897        19.1812 
  43   0.0000       0.710035        19.3210 
  44   0.0000       0.713918        19.4267 
  45   0.0000       0.724942        19.7267 
  46   0.0000       0.731430        19.9032 
  47   0.0000       0.742961        20.2170 
  48   0.0000       0.755235        20.5510 
  49   0.0000       0.763968        20.7886 
  50   0.0000       0.861951        23.4549 
  51   0.0000       0.939546        25.5663 
  52   0.0000       1.039010        28.2729 
  53   0.0000       1.092764        29.7356 
  54   0.0000       1.409207        38.3465 
  55   0.0000       1.523307        41.4513 
  56   0.0000       1.723046        46.8865 
  57   0.0000       1.745747        47.5042 
  58   0.0000       1.780034        48.4372 
  59   0.0000       1.831183        49.8290 
  60   0.0000       1.923845        52.3505 
  61   0.0000       1.939469        52.7756 
  62   0.0000       1.987211        54.0747 
  63   0.0000       2.049063        55.7578 
  64   0.0000       2.075539        56.4783 
  65   0.0000       2.091673        56.9173 
  66   0.0000       2.144113        58.3443 
  67   0.0000       2.147840        58.4457 
  68   0.0000       2.182710        59.3945 
  69   0.0000       2.427115        66.0452 
  70   0.0000       2.444153        66.5088 
  71   0.0000       2.500804        68.0503 
  72   0.0000       2.678636        72.8894 
  73   0.0000       2.686475        73.1027 

                    ********************************
                    * MULLIKEN POPULATION ANALYSIS *
                    ********************************

------------------------------------------
FOD BASED MULLIKEN REDUCED ORBITAL CHARGES
------------------------------------------
  0 C s       :    -0.000000  s :    -0.000000
      pz      :     0.000000  p :     0.000000
      px      :     0.000000
      py      :     0.000000
      dz2     :     0.000000  d :     0.000000
      dxz     :     0.000000
      dyz     :     0.000000
      dx2y2   :     0.000000
      dxy     :     0.000000
  1 C s       :    -0.000000  s :    -0.000000
      pz      :     0.000000  p :     0.000000
      px      :     0.000000
      py      :     0.000000
      dz2     :     0.000000  d :     0.000000
      dxz     :     0.000000
      dyz     :     0.000000
      dx2y2   :     0.000000
      dxy     :     0.000000
  2 C s       :    -0.000000  s :    -0.000000
      pz      :     0.000000  p :     0.000000
      px      :     0.000000
      py      :     0.000000
      dz2     :     0.000000  d :     0.000000
      dxz     :     0.000000
      dyz     :     0.000000
      dx2y2   :     0.000000
      dxy     :     0.000000
  3 C s       :    -0.000000  s :    -0.000000
      pz      :     0.000000  p :     0.000000
      px      :     0.000000
      py      :     0.000000
      dz2     :     0.000000  d :     0.000000
      dxz     :     0.000000
      dyz     :     0.000000
      dx2y2   :     0.000000
      dxy     :     0.000000
  4 H s       :     0.000000  s :     0.000000
  5 H s       :     0.000000  s :     0.000000
  6 H s       :     0.000000  s :     0.000000
  7 H s       :     0.000000  s :     0.000000
  8 H s       :     0.000000  s :     0.000000
  9 H s       :     0.000000  s :     0.000000
 10 H s       :     0.000000  s :     0.000000
 11 H s       :     0.000000  s :     0.000000
 12 H s       :     0.000000  s :     0.000000


                     *******************************
                     * LOEWDIN POPULATION ANALYSIS *
                     *******************************

-------------------------------------------
LOEWDIN ATOMIC CHARGES AND SPIN POPULATIONS
-------------------------------------------
   0 C :   -0.160839   -0.012783
   1 C :   -0.220970    0.978512
   2 C :   -0.307535    0.006477
   3 C :   -0.306504    0.048528
   4 H :    0.114298    0.022454
   5 H :    0.112818   -0.026111
   6 H :    0.111183   -0.025705
   7 H :    0.109595   -0.000245
   8 H :    0.111549    0.000554
   9 H :    0.108776   -0.000113
  10 H :    0.109712    0.000015
  11 H :    0.108863    0.008100
  12 H :    0.109055    0.000317

----------------------------------------------------
LOEWDIN REDUCED ORBITAL CHARGES AND SPIN POPULATIONS
----------------------------------------------------
CHARGE
  0 C s       :     2.876539  s :     2.876539
      pz      :     1.071156  p :     3.173045
      px      :     1.056343
      py      :     1.045547
      dz2     :     0.029380  d :     0.111254
      dxz     :     0.020459
      dyz     :     0.009642
      dx2y2   :     0.022181
      dxy     :     0.029591
  1 C s       :     3.017386  s :     3.017386
      pz      :     1.051909  p :     3.146675
      px      :     1.050527
      py      :     1.044239
      dz2     :     0.012465  d :     0.056908
      dxz     :     0.010258
      dyz     :     0.009946
      dx2y2   :     0.008396
      dxy     :     0.015843
  2 C s       :     2.956076  s :     2.956076
      pz      :     1.112606  p :     3.278649
      px      :     1.093625
      py      :     1.072418
      dz2     :     0.017931  d :     0.072810
      dxz     :     0.015928
      dyz     :     0.006650
      dx2y2   :     0.014174
      dxy     :     0.018126
  3 C s       :     2.963510  s :     2.963510
      pz      :     1.113565  p :     3.270510
      px      :     1.086235
      py      :     1.070710
      dz2     :     0.019232  d :     0.072484
      dxz     :     0.016819
      dyz     :     0.004253
      dx2y2   :     0.014060
      dxy     :     0.018120
  4 H s       :     0.885702  s :     0.885702
  5 H s       :     0.887182  s :     0.887182
  6 H s       :     0.888817  s :     0.888817
  7 H s       :     0.890405  s :     0.890405
  8 H s       :     0.888451  s :     0.888451
  9 H s       :     0.891224  s :     0.891224
 10 H s       :     0.890288  s :     0.890288
 11 H s       :     0.891137  s :     0.891137
 12 H s       :     0.890945  s :     0.890945

SPIN
  0 C s       :    -0.005139  s :    -0.005139
      pz      :    -0.008800  p :    -0.024252
      px      :    -0.012602
      py      :    -0.002849
      dz2     :     0.006830  d :     0.016608
      dxz     :     0.001690
      dyz     :     0.000219
      dx2y2   :     0.000769
      dxy     :     0.007099
  1 C s       :     0.040114  s :     0.040114
      pz      :     0.338939  p :     0.942260
      px      :     0.176928
      py      :     0.426392
      dz2     :    -0.000201  d :    -0.003862
      dxz     :    -0.000702
      dyz     :    -0.001716
      dx2y2   :    -0.000405
      dxy     :    -0.000838
  2 C s       :     0.001156  s :     0.001156
      pz      :     0.001118  p :     0.005508
      px      :     0.003575
      py      :     0.000815
      dz2     :     0.000113  d :    -0.000187
      dxz     :    -0.000030
      dyz     :    -0.000043
      dx2y2   :    -0.000201
      dxy     :    -0.000026
  3 C s       :     0.016384  s :     0.016384
      pz      :     0.001752  p :     0.031702
      px      :     0.011947
      py      :     0.018003
      dz2     :    -0.000109  d :     0.000442
      dxz     :     0.000320
      dyz     :    -0.000045
      dx2y2   :     0.000312
      dxy     :    -0.000035
  4 H s       :     0.022454  s :     0.022454
  5 H s       :    -0.026111  s :    -0.026111
  6 H s       :    -0.025705  s :    -0.025705
  7 H s       :    -0.000245  s :    -0.000245
  8 H s       :     0.000554  s :     0.000554
  9 H s       :    -0.000113  s :    -0.000113
 10 H s       :     0.000015  s :     0.000015
 11 H s       :     0.008100  s :     0.008100
 12 H s       :     0.000317  s :     0.000317


                      *****************************
                      * MAYER POPULATION ANALYSIS *
                      *****************************

  NA   - Mulliken gross atomic population
  ZA   - Total nuclear charge
  QA   - Mulliken gross atomic charge
  VA   - Mayer's total valence
  BVA  - Mayer's bonded valence
  FA   - Mayer's free valence

  ATOM       NA         ZA         QA         VA         BVA        FA
  0 C      6.1017     6.0000    -0.1017     4.1943     4.1912     0.0031
  1 C      6.2327     6.0000    -0.2327     3.8902     2.9985     0.8916
  2 C      6.2355     6.0000    -0.2355     3.9573     3.9573     0.0000
  3 C      6.2296     6.0000    -0.2296     3.9383     3.9365     0.0018
  4 H      0.9274     1.0000     0.0726     0.9375     0.9369     0.0007
  5 H      0.9008     1.0000     0.0992     0.9562     0.9533     0.0029
  6 H      0.8998     1.0000     0.1002     0.9503     0.9475     0.0028
  7 H      0.9134     1.0000     0.0866     0.9581     0.9581     0.0000
  8 H      0.9061     1.0000     0.0939     0.9551     0.9551     0.0000
  9 H      0.9148     1.0000     0.0852     0.9618     0.9618     0.0000
 10 H      0.9102     1.0000     0.0898     0.9583     0.9583     0.0000
 11 H      0.9122     1.0000     0.0878     0.9575     0.9573     0.0002
 12 H      0.9156     1.0000     0.0844     0.9651     0.9650     0.0000

  Mayer bond orders larger than 0.100000
B(  0-C ,  1-C ) :   1.0806 B(  0-C ,  2-C ) :   1.0949 B(  0-C ,  3-C ) :   1.0758 
B(  0-C ,  4-H ) :   0.9104 B(  1-C ,  5-H ) :   0.9421 B(  1-C ,  6-H ) :   0.9412 
B(  2-C ,  7-H ) :   0.9579 B(  2-C ,  8-H ) :   0.9599 B(  2-C ,  9-H ) :   0.9566 
B(  3-C , 10-H ) :   0.9603 B(  3-C , 11-H ) :   0.9536 B(  3-C , 12-H ) :   0.9576 


-------
TIMINGS
-------

Total SCF time: 0 days 0 hours 5 min 44 sec 

Total time                  ....     344.949 sec
Sum of individual times     ....     285.197 sec  ( 82.7%)

Fock matrix formation       ....     241.147 sec  ( 69.9%)
  XC integration            ....     134.699 sec  ( 55.9% of F)
    Basis function eval.    ....       0.534 sec  (  0.4% of XC)
    Density eval.           ....       0.374 sec  (  0.3% of XC)
    XC-Functional eval.     ....       0.230 sec  (  0.2% of XC)
    XC-Potential eval.      ....       0.527 sec  (  0.4% of XC)
Diagonalization             ....       9.119 sec  (  2.6%)
Density matrix formation    ....      20.215 sec  (  5.9%)
Population analysis         ....       6.737 sec  (  2.0%)
Initial guess               ....       0.003 sec  (  0.0%)
Orbital Transformation      ....       0.000 sec  (  0.0%)
Orbital Orthonormalization  ....       0.001 sec  (  0.0%)
DIIS solution               ....       5.815 sec  (  1.7%)
Grid generation             ....       2.160 sec  (  0.6%)


-------------------------------------------------------------------------------
                          DFT DISPERSION CORRECTION                            
                                                                               
                              DFTD3 V3.1  Rev 1                                
                          USING Becke-Johnson damping                          
-------------------------------------------------------------------------------
The B3LYP functional is recognized
Active option DFTDOPT                   ...         4   

molecular C6(AA) [au] = 1132.638557 


            DFT-D V3
 parameters
 s6 scaling factor         :     1.0000 
 a1 scaling factor         :     0.3981 
 s8 scaling factor         :     1.9889 
 a2 scaling factor         :     4.4211 
 ad hoc parameters k1-k3   :    16.0000     1.3333    -4.0000 

 Edisp/kcal,au: -9.028211406165  -0.014387369141 
 E6   /kcal   :  -4.468748632 
 E8   /kcal   :  -4.559462774 
 % E8         :  50.502392651 

-------------------------   ----------------
Dispersion correction           -0.014387369
-------------------------   ----------------


-------------------------   --------------------
FINAL SINGLE POINT ENERGY      -157.545014142312
-------------------------   --------------------

                                *** OPTIMIZATION RUN DONE ***

                            ***************************************
                            *     ORCA property calculations      *
                            ***************************************

                                    ---------------------
                                    Active property flags
                                    ---------------------
   (+) Dipole Moment


------------------------------------------------------------------------------
                       ORCA ELECTRIC PROPERTIES CALCULATION
------------------------------------------------------------------------------

Dipole Moment Calculation                       ... on
Quadrupole Moment Calculation                   ... off
Polarizability Calculation                      ... off
GBWName                                         ... orca3.gbw
Electron density file                           ... orca3.scfp
The origin for moment calculation is the CENTER OF MASS  = ( 0.102228,  0.100296 -0.107593)

-------------
DIPOLE MOMENT
-------------
                                X             Y             Z
Electronic contribution:     -1.26614      -0.03973      -0.24399
Nuclear contribution   :      1.34002       0.08660       0.20495
                        -----------------------------------------
Total Dipole Moment    :      0.07388       0.04687      -0.03904
                        -----------------------------------------
Magnitude (a.u.)       :      0.09581
Magnitude (Debye)      :      0.24352



--------------------
Rotational spectrum 
--------------------
 
Rotational constants in cm-1:     0.275292     0.261497     0.154744 
Rotational constants in MHz :  8253.059169  7839.478666  4639.114459 

 Dipole components along the rotational axes: 
x,y,z [a.u.] :     0.031408    -0.087513    -0.023100 
x,y,z [Debye]:     0.079834    -0.222440    -0.058715 

 

Timings for individual modules:

Sum of individual times         ...     6932.046 sec (= 115.534 min)
GTO integral calculation        ...      163.154 sec (=   2.719 min)   2.4 %
SCF iterations                  ...     6605.925 sec (= 110.099 min)  95.3 %
SCF Gradient evaluation         ...       88.702 sec (=   1.478 min)   1.3 %
Geometry relaxation             ...       74.266 sec (=   1.238 min)   1.1 %
                             ****ORCA TERMINATED NORMALLY****
TOTAL RUN TIME: 0 days 2 hours 0 minutes 1 seconds 547 msec
