
                                 *****************
                                 * O   R   C   A *
                                 *****************

           --- An Ab Initio, DFT and Semiempirical electronic structure package ---

                  #######################################################
                  #                        -***-                        #
                  #          Department of theory and spectroscopy      #
                  #               Directorship: Frank Neese             #
                  #        Max Planck Institute fuer Kohlenforschung    #
                  #                Kaiser Wilhelm Platz 1               #
                  #                 D-45470 Muelheim/Ruhr               #
                  #                      Germany                        #
                  #                                                     #
                  #                  All rights reserved                #
                  #                        -***-                        #
                  #######################################################


                         Program Version 4.2.1 -  RELEASE  -


 With contributions from (in alphabetic order):
   Daniel Aravena         : Magnetic Suceptibility
   Michael Atanasov       : Ab Initio Ligand Field Theory (pilot matlab implementation)
   Alexander A. Auer      : GIAO ZORA, VPT2
   Ute Becker             : Parallelization
   Giovanni Bistoni       : ED, misc. LED, open-shell LED, HFLD
   Martin Brehm           : Molecular dynamics
   Dmytro Bykov           : SCF Hessian
   Vijay G. Chilkuri      : MRCI spin determinant printing, contributions to CSF-ICE
   Dipayan Datta          : RHF DLPNO-CCSD density
   Achintya Kumar Dutta   : EOM-CC, STEOM-CC
   Dmitry Ganyushin       : Spin-Orbit,Spin-Spin,Magnetic field MRCI
   Miquel Garcia          : C-PCM Hessian, Gaussian charge scheme
   Yang Guo               : DLPNO-NEVPT2, CIM, IAO-localization
   Andreas Hansen         : Spin unrestricted coupled pair/coupled cluster methods
   Benjamin Helmich-Paris : CASSCF linear response (MC-RPA)
   Lee Huntington         : MR-EOM, pCC
   Robert Izsak           : Overlap fitted RIJCOSX, COSX-SCS-MP3, EOM
   Christian Kollmar      : KDIIS, OOCD, Brueckner-CCSD(T), CCSD density
   Simone Kossmann        : Meta GGA functionals, TD-DFT gradient, OOMP2, MP2 Hessian
   Martin Krupicka        : AUTO-CI
   Lucas Lang             : DCDCAS
   Dagmar Lenk            : GEPOL surface, SMD
   Dimitrios Liakos       : Extrapolation schemes; Compound Job, initial MDCI parallelization
   Dimitrios Manganas     : Further ROCIS development; embedding schemes
   Dimitrios Pantazis     : SARC Basis sets
   Taras Petrenko         : DFT Hessian,TD-DFT gradient, ASA, ECA, R-Raman, ABS, FL, XAS/XES, NRVS
   Peter Pinski           : DLPNO-MP2, DLPNO-MP2 Gradient
   Christoph Reimann      : Effective Core Potentials
   Marius Retegan         : Local ZFS, SOC
   Christoph Riplinger    : Optimizer, TS searches, QM/MM, DLPNO-CCSD(T), (RO)-DLPNO pert. Triples
   Tobias Risthaus        : Range-separated hybrids, TD-DFT gradient, RPA, STAB
   Michael Roemelt        : Original ROCIS implementation
   Masaaki Saitow         : Open-shell DLPNO-CCSD energy and density
   Barbara Sandhoefer     : DKH picture change effects
   Avijit Sen             : IP-ROCIS
   Kantharuban Sivalingam : CASSCF convergence, NEVPT2, FIC-MRCI
   Bernardo de Souza      : ESD, SOC TD-DFT
   Georgi Stoychev        : AutoAux, RI-MP2 NMR
   Willem Van den Heuvel  : Paramagnetic NMR
   Boris Wezisla          : Elementary symmetry handling
   Frank Wennmohs         : Technical directorship


 We gratefully acknowledge several colleagues who have allowed us to
 interface, adapt or use parts of their codes:
   Stefan Grimme, W. Hujo, H. Kruse,             : VdW corrections, initial TS optimization,
                  C. Bannwarth                     DFT functionals, gCP, sTDA/sTD-DF
   Ed Valeev, F. Pavosevic, A. Kumar             : LibInt (2-el integral package), F12 methods
   Garnet Chan, S. Sharma, J. Yang, R. Olivares  : DMRG
   Ulf Ekstrom                                   : XCFun DFT Library
   Mihaly Kallay                                 : mrcc  (arbitrary order and MRCC methods)
   Andreas Klamt, Michael Diedenhofen            : otool_cosmo (COSMO solvation model)
   Jiri Pittner, Ondrej Demel                    : Mk-CCSD
   Frank Weinhold                                : gennbo (NPA and NBO analysis)
   Christopher J. Cramer and Donald G. Truhlar   : smd solvation model
   Lars Goerigk                                  : TD-DFT with DH, B97 family of functionals
   V. Asgeirsson, H. Jonsson                     : NEB implementation
   FAccTs GmbH                                   : IRC, NEB, NEB-TS, Multilevel, MM, QM/MM, CI optimization
   S Lehtola, MJT Oliveira, MAL Marques          : LibXC Library


 Your calculation uses the libint2 library for the computation of 2-el integrals
 For citations please refer to: http://libint.valeyev.net

 Your ORCA version has been built with support for libXC version: 4.2.3
 For citations please refer to: https://tddft.org/programs/libxc/

 This ORCA versions uses:
   CBLAS   interface :  Fast vector & matrix operations
   LAPACKE interface :  Fast linear algebra routines
   SCALAPACK package :  Parallel linear algebra routines


Your calculation utilizes the atom-pairwise dispersion correction
with the Becke-Johnson damping scheme (D3BJ)
Cite in your paper:
S.Grimme, S.Ehrlich, L.Goerigk, J Comput Chem, (2011), 32, 1456–1465 
S.Grimme, J.Antony, S.Ehrlich and H.Krieg, J.Chem.Phys., 132, (2010), 154104 
   

----- Orbital basis set information -----
Your calculation utilizes the basis: def2-SV(P)
   F. Weigend and R. Ahlrichs, Phys. Chem. Chem. Phys. 7, 3297 (2005).

----- AuxJ basis set information -----
Your calculation utilizes the auxiliary basis: def2/J
   F. Weigend, Phys. Chem. Chem. Phys. 8, 1057 (2006).

================================================================================
                                        WARNINGS
                       Please study these warnings very carefully!
================================================================================


WARNING: Geometry Optimization
  ===> : Switching off AutoStart
         For restart on a previous wavefunction, please use MOREAD

INFO   : the flag for use of LIBINT has been found!

================================================================================
                                       INPUT FILE
================================================================================
NAME = orca4.inp
|  1> ! UKS B3LYP def2-SV(P) def2/J D3BJ Opt
|  2> %scf Convergence VeryTight
|  3> SmearTemp 2000
|  4> maxiter 500
|  5> end
|  6> *xyz 0 2
|  7> C 0.089792 -0.07288 0.485406
|  8> C 0.198814 1.413693 0.293692
|  9> C -1.328367 -0.476455 0.097331
| 10> C 1.124415 -0.866223 -0.251913
| 11> H 0.273194 -0.252818 1.575996
| 12> H -0.178502 1.649701 -0.733245
| 13> H -0.557889 1.87288 0.97997
| 14> H -1.778577 -0.958997 0.979185
| 15> H -1.231066 -1.130487 -0.782196
| 16> H -1.949483 0.382719 -0.188123
| 17> H 1.681171 -1.580027 0.408605
| 18> H 0.583725 -1.523462 -0.980085
| 19> H 1.858202 -0.262108 -0.80596
| 20> *
| 21> 
| 22>                          ****END OF INPUT****
================================================================================

                       *****************************
                       * Geometry Optimization Run *
                       *****************************

Geometry optimization settings:
Update method            Update   .... BFGS
Choice of coordinates    CoordSys .... Z-matrix Internals
Initial Hessian          InHess   .... Almoef's Model

Convergence Tolerances:
Energy Change            TolE     ....  5.0000e-06 Eh
Max. Gradient            TolMAXG  ....  3.0000e-04 Eh/bohr
RMS Gradient             TolRMSG  ....  1.0000e-04 Eh/bohr
Max. Displacement        TolMAXD  ....  4.0000e-03 bohr
RMS Displacement         TolRMSD  ....  2.0000e-03 bohr
Strict Convergence                ....  False
------------------------------------------------------------------------------
                        ORCA OPTIMIZATION COORDINATE SETUP
------------------------------------------------------------------------------

The optimization will be done in new redundant internal coordinates
Making redundant internal coordinates   ...  (new redundants) done
Evaluating the initial hessian          ...  (Almloef) done
Evaluating the coordinates              ...  done
Calculating the B-matrix                .... done
Calculating the G-matrix                .... done
Diagonalizing the G-matrix              .... done
The first mode is                       ....   24
The number of degrees of freedom        ....   33

    -----------------------------------------------------------------
                    Redundant Internal Coordinates


    -----------------------------------------------------------------
         Definition                    Initial Value    Approx d2E/dq
    -----------------------------------------------------------------
      1. B(C   1,C   0)                  1.5028         0.412766   
      2. B(C   2,C   0)                  1.5247         0.380947   
      3. B(C   3,C   0)                  1.4978         0.420448   
      4. B(H   4,C   0)                  1.1204         0.321994   
      5. B(H   5,C   1)                  1.1192         0.323441   
      6. B(H   6,C   1)                  1.1200         0.322507   
      7. B(H   7,C   2)                  1.1015         0.345261   
      8. B(H   8,C   2)                  1.1004         0.346652   
      9. B(H   9,C   2)                  1.0979         0.349762   
     10. B(H  10,C   3)                  1.1206         0.321795   
     11. B(H  11,C   3)                  1.1201         0.322447   
     12. B(H  12,C   3)                  1.1002         0.346899   
     13. A(C   1,C   0,H   4)          105.7327         0.323676   
     14. A(C   2,C   0,H   4)          110.9460         0.319453   
     15. A(C   1,C   0,C   2)          107.2676         0.370861   
     16. A(C   1,C   0,C   3)          114.2691         0.377226   
     17. A(C   2,C   0,C   3)          112.1479         0.372040   
     18. A(C   3,C   0,H   4)          106.3208         0.324657   
     19. A(H   5,C   1,H   6)          104.3590         0.281138   
     20. A(C   0,C   1,H   6)          106.1628         0.323760   
     21. A(C   0,C   1,H   5)          107.5283         0.323914   
     22. A(H   7,C   2,H   9)          108.6480         0.287612   
     23. A(C   0,C   2,H   9)          112.6582         0.323809   
     24. A(H   7,C   2,H   8)          114.5632         0.287211   
     25. A(C   0,C   2,H   8)          106.1723         0.323335   
     26. A(H   8,C   2,H   9)          107.8987         0.287793   
     27. A(C   0,C   2,H   7)          106.9995         0.323121   
     28. A(H  11,C   3,H  12)          108.4685         0.284199   
     29. A(H  10,C   3,H  12)          108.3748         0.284110   
     30. A(C   0,C   3,H  12)          114.6941         0.328665   
     31. A(H  10,C   3,H  11)          104.4338         0.280909   
     32. A(C   0,C   3,H  11)          107.3003         0.324732   
     33. A(C   0,C   3,H  10)          112.9806         0.324624   
     34. D(H   6,C   1,C   0,C   3)   -174.1616         0.012613   
     35. D(H   6,C   1,C   0,H   4)    -57.5931         0.012613   
     36. D(H   6,C   1,C   0,C   2)     60.8638         0.012613   
     37. D(H   5,C   1,C   0,H   4)   -168.8355         0.012613   
     38. D(H   5,C   1,C   0,C   2)    -50.3785         0.012613   
     39. D(H   5,C   1,C   0,C   3)     74.5961         0.012613   
     40. D(H   7,C   2,C   0,C   1)   -121.5887         0.011563   
     41. D(H   9,C   2,C   0,C   1)     -2.2514         0.011563   
     42. D(H   8,C   2,C   0,H   4)   -129.3324         0.011563   
     43. D(H   8,C   2,C   0,C   1)    115.6418         0.011563   
     44. D(H   7,C   2,C   0,H   4)     -6.5630         0.011563   
     45. D(H   7,C   2,C   0,C   3)    112.1665         0.011563   
     46. D(H   9,C   2,C   0,C   3)   -128.4961         0.011563   
     47. D(H   9,C   2,C   0,H   4)    112.7744         0.011563   
     48. D(H   8,C   2,C   0,C   3)    -10.6029         0.011563   
     49. D(H  12,C   3,C   0,H   4)   -113.7946         0.013986   
     50. D(H  12,C   3,C   0,C   1)      2.4335         0.013986   
     51. D(H  11,C   3,C   0,H   4)    125.6473         0.013986   
     52. D(H  11,C   3,C   0,C   2)      4.2239         0.013986   
     53. D(H  11,C   3,C   0,C   1)   -118.1246         0.013986   
     54. D(H  10,C   3,C   0,H   4)     11.0862         0.013986   
     55. D(H  12,C   3,C   0,C   2)    124.7820         0.013986   
     56. D(H  10,C   3,C   0,C   2)   -110.3372         0.013986   
     57. D(H  10,C   3,C   0,C   1)    127.3142         0.013986   
    -----------------------------------------------------------------

Number of atoms                         .... 13
Number of degrees of freedom            .... 57

Time needed for optimization step       :     1.64 sec

         *************************************************************
         *                GEOMETRY OPTIMIZATION CYCLE   1            *
         *************************************************************
---------------------------------
CARTESIAN COORDINATES (ANGSTROEM)
---------------------------------
  C      0.089792   -0.072880    0.485406
  C      0.198814    1.413693    0.293692
  C     -1.328367   -0.476455    0.097331
  C      1.124415   -0.866223   -0.251913
  H      0.273194   -0.252818    1.575996
  H     -0.178502    1.649701   -0.733245
  H     -0.557889    1.872880    0.979970
  H     -1.778577   -0.958997    0.979185
  H     -1.231066   -1.130487   -0.782196
  H     -1.949483    0.382719   -0.188123
  H      1.681171   -1.580027    0.408605
  H      0.583725   -1.523462   -0.980085
  H      1.858202   -0.262108   -0.805960

----------------------------
CARTESIAN COORDINATES (A.U.)
----------------------------
  NO LB      ZA    FRAG     MASS         X           Y           Z
   0 C     6.0000    0    12.011    0.169682   -0.137723    0.917284
   1 C     6.0000    0    12.011    0.375704    2.671493    0.554997
   2 C     6.0000    0    12.011   -2.510250   -0.900369    0.183929
   3 C     6.0000    0    12.011    2.124836   -1.636924   -0.476047
   4 H     1.0000    0     1.008    0.516262   -0.477757    2.978201
   5 H     1.0000    0     1.008   -0.337320    3.117483   -1.385632
   6 H     1.0000    0     1.008   -1.054257    3.539230    1.851875
   7 H     1.0000    0     1.008   -3.361023   -1.812242    1.850391
   8 H     1.0000    0     1.008   -2.326378   -2.136311   -1.478136
   9 H     1.0000    0     1.008   -3.683989    0.723234   -0.355501
  10 H     1.0000    0     1.008    3.176953   -2.985818    0.772152
  11 H     1.0000    0     1.008    1.103080   -2.878926   -1.852092
  12 H     1.0000    0     1.008    3.511493   -0.495312   -1.523044

--------------------------------
INTERNAL COORDINATES (ANGSTROEM)
--------------------------------
 C      0   0   0     0.000000000000     0.00000000     0.00000000
 C      1   0   0     1.502843750564     0.00000000     0.00000000
 C      1   2   0     1.524680273215   107.26760716     0.00000000
 C      1   2   3     1.497824147068   114.26912129   124.97466497
 H      1   2   3     1.120446574160   105.73270650   241.54307834
 H      2   1   3     1.119225956583   107.52828574   309.62145601
 H      2   1   3     1.120013225128   106.16276382    60.86377775
 H      3   1   2     1.101454630559   106.99952253   238.41125403
 H      3   1   2     1.100360434291   106.17234553   115.64184967
 H      3   1   2     1.097929430268   112.65824126   357.74864415
 H      4   1   2     1.120614751945   112.98055545   127.31423544
 H      4   1   2     1.120063944963   107.30025468   241.87542022
 H      4   1   2     1.100166520488   114.69414937     2.43348389

---------------------------
INTERNAL COORDINATES (A.U.)
---------------------------
 C      0   0   0     0.000000000000     0.00000000     0.00000000
 C      1   0   0     2.839963110641     0.00000000     0.00000000
 C      1   2   0     2.881228158169   107.26760716     0.00000000
 C      1   2   3     2.830477434732   114.26912129   124.97466497
 H      1   2   3     2.117337172854   105.73270650   241.54307834
 H      2   1   3     2.115030539918   107.52828574   309.62145601
 H      2   1   3     2.116518261862   106.16276382    60.86377775
 H      3   1   2     2.081447600696   106.99952253   238.41125403
 H      3   1   2     2.079379869413   106.17234553   115.64184967
 H      3   1   2     2.074785937578   112.65824126   357.74864415
 H      4   1   2     2.117654982808   112.98055545   127.31423544
 H      4   1   2     2.116614108459   107.30025468   241.87542022
 H      4   1   2     2.079013425432   114.69414937     2.43348389

---------------------
BASIS SET INFORMATION
---------------------
There are 2 groups of distinct atoms

 Group   1 Type C   : 7s4p1d contracted to 3s2p1d pattern {511/31/1}
 Group   2 Type H   : 4s contracted to 2s pattern {31}

Atom   0C    basis set group =>   1
Atom   1C    basis set group =>   1
Atom   2C    basis set group =>   1
Atom   3C    basis set group =>   1
Atom   4H    basis set group =>   2
Atom   5H    basis set group =>   2
Atom   6H    basis set group =>   2
Atom   7H    basis set group =>   2
Atom   8H    basis set group =>   2
Atom   9H    basis set group =>   2
Atom  10H    basis set group =>   2
Atom  11H    basis set group =>   2
Atom  12H    basis set group =>   2
---------------------------------
AUXILIARY/J BASIS SET INFORMATION
---------------------------------
There are 2 groups of distinct atoms

 Group   1 Type C   : 12s5p4d2f1g contracted to 6s4p3d1f1g pattern {711111/2111/211/2/1}
 Group   2 Type H   : 5s2p1d contracted to 3s1p1d pattern {311/2/1}

Atom   0C    basis set group =>   1
Atom   1C    basis set group =>   1
Atom   2C    basis set group =>   1
Atom   3C    basis set group =>   1
Atom   4H    basis set group =>   2
Atom   5H    basis set group =>   2
Atom   6H    basis set group =>   2
Atom   7H    basis set group =>   2
Atom   8H    basis set group =>   2
Atom   9H    basis set group =>   2
Atom  10H    basis set group =>   2
Atom  11H    basis set group =>   2
Atom  12H    basis set group =>   2
------------------------------------------------------------------------------
                           ORCA GTO INTEGRAL CALCULATION
------------------------------------------------------------------------------

                         BASIS SET STATISTICS AND STARTUP INFO

 # of primitive gaussian shells          ...   84
 # of primitive gaussian functions       ...  132
 # of contracted shells                  ...   42
 # of contracted basis functions         ...   74
 Highest angular momentum                ...    2
 Maximum contraction depth               ...    5
 Integral package used                   ... LIBINT
 Integral threshhold            Thresh   ...  1.000e-12
 Primitive cut-off              TCut     ...  1.000e-14


------------------------------ INTEGRAL EVALUATION ----------------------------


 * One electron integrals 
 Pre-screening matrix                    ... done
 Shell pair data                         ... done (   0.000 sec)

-------------------------------------------------------------------------------
                                 ORCA SCF
-------------------------------------------------------------------------------

------------
SCF SETTINGS
------------
Hamiltonian:
 Density Functional     Method          .... DFT(GTOs)
 Exchange Functional    Exchange        .... B88
   X-Alpha parameter    XAlpha          ....  0.666667
   Becke's b parameter  XBeta           ....  0.004200
 Correlation Functional Correlation     .... LYP
 LDA part of GGA corr.  LDAOpt          .... VWN-5
 Gradients option       PostSCFGGA      .... off
 Hybrid DFT is turned on
   Fraction HF Exchange ScalHFX         ....  0.200000
   Scaling of DF-GGA-X  ScalDFX         ....  0.720000
   Scaling of DF-GGA-C  ScalDFC         ....  0.810000
   Scaling of DF-LDA-C  ScalLDAC        ....  1.000000
   Perturbative correction              ....  0.000000
   Density functional embedding theory  .... OFF
   NL short-range parameter             ....  4.800000


General Settings:
 Integral files         IntName         .... orca4
 Hartree-Fock type      HFTyp           .... UHF
 Total Charge           Charge          ....    0
 Multiplicity           Mult            ....    2
 Number of Electrons    NEL             ....   33
 Basis Dimension        Dim             ....   74
 Nuclear Repulsion      ENuc            ....    127.5026798711 Eh

Convergence Acceleration:
 DIIS                   CNVDIIS         .... on
   Start iteration      DIISMaxIt       ....    12
   Startup error        DIISStart       ....  0.200000
   # of expansion vecs  DIISMaxEq       ....     5
   Bias factor          DIISBfac        ....   1.050
   Max. coefficient     DIISMaxC        ....  10.000
 Newton-Raphson         CNVNR           .... off
 SOSCF                  CNVSOSCF        .... off
 Level Shifting         CNVShift        .... on
   Level shift para.    LevelShift      ....    0.2500
   Turn off err/grad.   ShiftErr        ....    0.0010
 Zerner damping         CNVZerner       .... off
 Static damping         CNVDamp         .... on
   Fraction old density DampFac         ....    0.7000
   Max. Damping (<1)    DampMax         ....    0.9800
   Min. Damping (>=0)   DampMin         ....    0.0000
   Turn off err/grad.   DampErr         ....    0.1000
 Fernandez-Rico         CNVRico         .... off

SCF Procedure:
 Maximum # iterations   MaxIter         ....   500
 SCF integral mode      SCFMode         .... Direct
   Integral package                     .... LIBINT
 Reset frequency        DirectResetFreq ....    20
 Integral Threshold     Thresh          ....  1.000e-12 Eh
 Primitive CutOff       TCut            ....  1.000e-14 Eh

Convergence Tolerance:
 Convergence Check Mode ConvCheckMode   .... Total+1el-Energy
 Convergence forced     ConvForced      .... 0
 Energy Change          TolE            ....  1.000e-09 Eh
 1-El. energy change                    ....  1.000e-06 Eh
 DIIS Error             TolErr          ....  1.000e-08


Diagonalization of the overlap matrix:
Smallest eigenvalue                        ... 1.759e-03
Time for diagonalization                   ...    0.001 sec
Threshold for overlap eigenvalues          ... 1.000e-08
Number of eigenvalues below threshold      ... 0
Time for construction of square roots      ...    0.850 sec
Total time needed                          ...    0.851 sec

-------------------
DFT GRID GENERATION
-------------------

General Integration Accuracy     IntAcc      ...  4.340
Radial Grid Type                 RadialGrid  ... Gauss-Chebyshev
Angular Grid (max. acc.)         AngularGrid ... Lebedev-110
Angular grid pruning method      GridPruning ... 3 (G Style)
Weight generation scheme         WeightScheme... Becke
Basis function cutoff            BFCut       ...    1.0000e-12
Integration weight cutoff        WCut        ...    1.0000e-14
Grids for H and He will be reduced by one unit

# of grid points (after initial pruning)     ...  13770 (   0.0 sec)
# of grid points (after weights+screening)   ...  12818 (   0.0 sec)
nearest neighbour list constructed           ...    0.0 sec
Grid point re-assignment to atoms done       ...    0.0 sec
Grid point division into batches done        ...    0.0 sec
Reduced shell lists constructed in    0.1 sec

Total number of grid points                  ...    12818
Total number of batches                      ...      207
Average number of points per batch           ...       61
Average number of grid points per atom       ...      986
Average number of shells per batch           ...    37.55 (89.40%)
Average number of basis functions per batch  ...    67.04 (90.59%)
Average number of large shells per batch     ...    33.04 (88.00%)
Average number of large basis fcns per batch ...    58.63 (87.46%)
Maximum spatial batch extension              ...  23.04, 20.23, 20.05 au
Average spatial batch extension              ...   3.99,  4.16,  3.90 au

Time for grid setup =    0.654 sec

------------------------------
INITIAL GUESS: MODEL POTENTIAL
------------------------------
Loading Hartree-Fock densities                     ... done
Calculating cut-offs                               ... done
Setting up the integral package                    ... done
Initializing the effective Hamiltonian             ... done
Starting the Coulomb interaction                   ... done (   0.0 sec)
Reading the grid                                   ... done
Mapping shells                                     ... done
Starting the XC term evaluation                    ... done (   0.1 sec)
  promolecular density results
     # of electrons  =     33.005577921
     EX              =    -23.192481399
     EC              =     -1.033340488
     EX+EC           =    -24.225821886
Transforming the Hamiltonian                       ... done (   0.0 sec)
Diagonalizing the Hamiltonian                      ... done (   0.0 sec)
Back transforming the eigenvectors                 ... done (   0.0 sec)
Now organizing SCF variables                       ... done
                      ------------------
                      INITIAL GUESS DONE (   0.9 sec)
                      ------------------
--------------
SCF ITERATIONS
--------------
ITER       Energy         Delta-E        Max-DP      RMS-DP      [F,P]     Damp
               ***  Starting incremental Fock matrix formation  ***
  0   -157.3482365452   0.000000000000 0.04241651  0.00209485  0.1638739 0.7000
  1   -157.4158386832  -0.067602137992 0.02607409  0.00150812  0.0852696 0.7000
                               ***Turning on DIIS***
  2   -157.4431635255  -0.027324842311 0.03684116  0.00251120  0.0319995 0.0000
  3   -157.4806502547  -0.037486729202 0.01786558  0.00105928  0.0459902 0.0000
  4   -157.4927150440  -0.012064789276 0.00588709  0.00032587  0.0090374 0.0000
  5   -157.4933242430  -0.000609198972 0.00188331  0.00011516  0.0021664 0.0000
  6   -157.4933771107  -0.000052867737 0.00157515  0.00007747  0.0009035 0.0000
  7   -157.4933891057  -0.000011994973 0.00041875  0.00001534  0.0001674 0.0000
  8   -157.4933900485  -0.000000942857 0.00014267  0.00000480  0.0000887 0.0000
  9   -157.4933901615  -0.000000112970 0.00006767  0.00000214  0.0000546 0.0000
 10   -157.4933901869  -0.000000025365 0.00002281  0.00000081  0.0000089 0.0000
 11   -157.4933901915  -0.000000004627 0.00001353  0.00000052  0.0000039 0.0000
 12   -157.4933901929  -0.000000001392 0.00000311  0.00000012  0.0000022 0.0000
 13   -157.4933901930  -0.000000000137 0.00000427  0.00000015  0.0000013 0.0000
 14   -157.4933901931  -0.000000000109 0.00000122  0.00000005  0.0000004 0.0000
 15   -157.4933901931  -0.000000000006 0.00000083  0.00000003  0.0000002 0.0000
 16   -157.4933901931  -0.000000000001 0.00000011  0.00000000  0.0000002 0.0000
                 **** Energy Check signals convergence ****

 Fermi smearing  (ALPHA): E(HOMO(Eh)) = -0.312416 MUE = -0.089809 gap=   7.816 eV
 Fermi smearing   (BETA): E(HOMO(Eh)) = -0.309282 MUE = -0.188440 gap=   6.562 eV

N_FOD(alpha) =  0.000000
 N_FOD(beta) =  0.000000
       N_FOD =  0.000000

               *****************************************************
               *                     SUCCESS                       *
               *           SCF CONVERGED AFTER  17 CYCLES          *
               *****************************************************

Setting up the final grid:

General Integration Accuracy     IntAcc      ...  4.670
Radial Grid Type                 RadialGrid  ... Gauss-Chebyshev
Angular Grid (max. acc.)         AngularGrid ... Lebedev-302
Angular grid pruning method      GridPruning ... 3 (G Style)
Weight generation scheme         WeightScheme... Becke
Basis function cutoff            BFCut       ...    1.0000e-12
Integration weight cutoff        WCut        ...    1.0000e-14
Grids for H and He will be reduced by one unit

# of grid points (after initial pruning)     ...  55394 (   0.0 sec)
# of grid points (after weights+screening)   ...  51105 (   0.1 sec)
nearest neighbour list constructed           ...    0.0 sec
Grid point re-assignment to atoms done       ...    0.0 sec
Grid point division into batches done        ...    0.2 sec
Reduced shell lists constructed in    0.3 sec

Total number of grid points                  ...    51105
Total number of batches                      ...      806
Average number of points per batch           ...       63
Average number of grid points per atom       ...     3931
Average number of shells per batch           ...    35.12 (83.61%)
Average number of basis functions per batch  ...    62.50 (84.46%)
Average number of large shells per batch     ...    30.28 (86.24%)
Average number of large basis fcns per batch ...    53.32 (85.31%)
Maximum spatial batch extension              ...  20.21, 19.48, 19.06 au
Average spatial batch extension              ...   2.66,  2.62,  2.56 au

Final grid set up in    1.5 sec
Final integration                            ... done (  13.6 sec)
Change in XC energy                          ...     0.000712696
Integrated number of electrons               ...    32.999970367
Previous integrated no of electrons          ...    33.006158273

----------------
TOTAL SCF ENERGY
----------------

Total Energy       :         -157.49267750 Eh           -4285.59363 eV

Components:
Nuclear Repulsion  :          127.50267987 Eh            3469.52431 eV
Electronic Energy  :         -284.99535737 Eh           -7755.11794 eV
One Electron Energy:         -462.44344198 Eh          -12583.72580 eV
Two Electron Energy:          177.44808462 Eh            4828.60786 eV

Virial components:
Potential Energy   :         -313.42454648 Eh           -8528.71550 eV
Kinetic Energy     :          155.93186899 Eh            4243.12187 eV
Virial Ratio       :            2.01000955


DFT components:
N(Alpha)           :       16.999986740843 electrons
N(Beta)            :       15.999983625900 electrons
N(Total)           :       32.999970366743 electrons
E(X)               :      -18.889635602736 Eh       
E(C)               :       -1.221632396332 Eh       
E(XC)              :      -20.111267999069 Eh       
DFET-embed. en.    :        0.000000000000 Eh       

---------------
SCF CONVERGENCE
---------------

  Last Energy change         ...   -8.6970e-12  Tolerance :   1.0000e-09
  Last MAX-Density change    ...    1.2568e-07  Tolerance :   1.0000e-08
  Last RMS-Density change    ...    5.3565e-09  Tolerance :   1.0000e-09
  Last DIIS Error            ...    2.7466e-08  Tolerance :   1.0000e-08

             **** THE GBW FILE WAS UPDATED (orca4.gbw) ****
             **** DENSITY FILE WAS UPDATED (orca4.scfp) ****
             **** ENERGY FILE WAS UPDATED (orca4.en.tmp) ****
             **** THE GBW FILE WAS UPDATED (orca4.gbw) ****
             **** DENSITY FILE WAS UPDATED (orca4.scfp) ****
----------------
ORBITAL ENERGIES
----------------
                 SPIN UP ORBITALS
  NO   OCC          E(Eh)            E(eV) 
   0   1.0000     -10.189403      -277.2678 
   1   1.0000     -10.182407      -277.0774 
   2   1.0000     -10.173722      -276.8411 
   3   1.0000     -10.165307      -276.6121 
   4   1.0000      -0.807746       -21.9799 
   5   1.0000      -0.678014       -18.4497 
   6   1.0000      -0.664890       -18.0926 
   7   1.0000      -0.548387       -14.9224 
   8   1.0000      -0.467217       -12.7136 
   9   1.0000      -0.436005       -11.8643 
  10   1.0000      -0.405164       -11.0251 
  11   1.0000      -0.395537       -10.7631 
  12   1.0000      -0.387753       -10.5513 
  13   1.0000      -0.342993        -9.3333 
  14   1.0000      -0.332807        -9.0561 
  15   1.0000      -0.312416        -8.5013 
  16   1.0000      -0.233433        -6.3520 
  17   0.0000       0.053816         1.4644 
  18   0.0000       0.082051         2.2327 
  19   0.0000       0.098972         2.6932 
  20   0.0000       0.109503         2.9797 
  21   0.0000       0.121375         3.3028 
  22   0.0000       0.132362         3.6018 
  23   0.0000       0.149145         4.0584 
  24   0.0000       0.165650         4.5076 
  25   0.0000       0.174824         4.7572 
  26   0.0000       0.229832         6.2540 
  27   0.0000       0.281244         7.6530 
  28   0.0000       0.285869         7.7789 
  29   0.0000       0.402380        10.9493 
  30   0.0000       0.430597        11.7171 
  31   0.0000       0.434025        11.8104 
  32   0.0000       0.492654        13.4058 
  33   0.0000       0.517738        14.0884 
  34   0.0000       0.525985        14.3128 
  35   0.0000       0.564461        15.3598 
  36   0.0000       0.591524        16.0962 
  37   0.0000       0.609512        16.5857 
  38   0.0000       0.647666        17.6239 
  39   0.0000       0.656789        17.8721 
  40   0.0000       0.670577        18.2473 
  41   0.0000       0.688713        18.7408 
  42   0.0000       0.694955        18.9107 
  43   0.0000       0.704170        19.1614 
  44   0.0000       0.708053        19.2671 
  45   0.0000       0.718932        19.5631 
  46   0.0000       0.729531        19.8516 
  47   0.0000       0.734024        19.9738 
  48   0.0000       0.742598        20.2071 
  49   0.0000       0.759833        20.6761 
  50   0.0000       0.797305        21.6958 
  51   0.0000       0.842031        22.9128 
  52   0.0000       0.970705        26.4142 
  53   0.0000       1.101778        29.9809 
  54   0.0000       1.391506        37.8648 
  55   0.0000       1.404641        38.2222 
  56   0.0000       1.749119        47.5959 
  57   0.0000       1.759616        47.8816 
  58   0.0000       1.796244        48.8783 
  59   0.0000       1.851608        50.3848 
  60   0.0000       1.883548        51.2539 
  61   0.0000       1.929163        52.4952 
  62   0.0000       1.974662        53.7333 
  63   0.0000       2.005075        54.5609 
  64   0.0000       2.091175        56.9038 
  65   0.0000       2.108233        57.3679 
  66   0.0000       2.159237        58.7558 
  67   0.0000       2.169776        59.0426 
  68   0.0000       2.202189        59.9246 
  69   0.0000       2.404999        65.4433 
  70   0.0000       2.412438        65.6458 
  71   0.0000       2.486338        67.6567 
  72   0.0000       2.690327        73.2075 
  73   0.0000       2.714684        73.8703 

                 SPIN DOWN ORBITALS
  NO   OCC          E(Eh)            E(eV) 
   0   1.0000     -10.182485      -277.0795 
   1   1.0000     -10.173994      -276.8485 
   2   1.0000     -10.172277      -276.8017 
   3   1.0000     -10.165043      -276.6049 
   4   1.0000      -0.800876       -21.7929 
   5   1.0000      -0.675409       -18.3788 
   6   1.0000      -0.645426       -17.5629 
   7   1.0000      -0.542079       -14.7507 
   8   1.0000      -0.464536       -12.6407 
   9   1.0000      -0.431723       -11.7478 
  10   1.0000      -0.393948       -10.7199 
  11   1.0000      -0.392423       -10.6784 
  12   1.0000      -0.380258       -10.3473 
  13   1.0000      -0.340182        -9.2568 
  14   1.0000      -0.325086        -8.8460 
  15   1.0000      -0.309282        -8.4160 
  16   0.0000      -0.068145        -1.8543 
  17   0.0000       0.055461         1.5092 
  18   0.0000       0.082909         2.2561 
  19   0.0000       0.102104         2.7784 
  20   0.0000       0.111460         3.0330 
  21   0.0000       0.125043         3.4026 
  22   0.0000       0.141566         3.8522 
  23   0.0000       0.150640         4.0991 
  24   0.0000       0.168640         4.5889 
  25   0.0000       0.176508         4.8030 
  26   0.0000       0.232778         6.3342 
  27   0.0000       0.285514         7.7692 
  28   0.0000       0.293806         7.9949 
  29   0.0000       0.405415        11.0319 
  30   0.0000       0.435930        11.8622 
  31   0.0000       0.438991        11.9455 
  32   0.0000       0.515181        14.0188 
  33   0.0000       0.530068        14.4239 
  34   0.0000       0.548364        14.9218 
  35   0.0000       0.573875        15.6159 
  36   0.0000       0.603937        16.4340 
  37   0.0000       0.616921        16.7873 
  38   0.0000       0.653802        17.7908 
  39   0.0000       0.663048        18.0425 
  40   0.0000       0.673703        18.3324 
  41   0.0000       0.696142        18.9430 
  42   0.0000       0.700044        19.0492 
  43   0.0000       0.708575        19.2813 
  44   0.0000       0.713443        19.4138 
  45   0.0000       0.722807        19.6686 
  46   0.0000       0.733616        19.9627 
  47   0.0000       0.738421        20.0935 
  48   0.0000       0.745465        20.2851 
  49   0.0000       0.764082        20.7917 
  50   0.0000       0.799617        21.7587 
  51   0.0000       0.849112        23.1055 
  52   0.0000       0.973120        26.4799 
  53   0.0000       1.104294        30.0494 
  54   0.0000       1.401906        38.1478 
  55   0.0000       1.412561        38.4377 
  56   0.0000       1.767924        48.1077 
  57   0.0000       1.786411        48.6107 
  58   0.0000       1.813127        49.3377 
  59   0.0000       1.873417        50.9783 
  60   0.0000       1.908883        51.9433 
  61   0.0000       1.941524        52.8315 
  62   0.0000       1.980151        53.8827 
  63   0.0000       2.027195        55.1628 
  64   0.0000       2.102609        57.2149 
  65   0.0000       2.124240        57.8035 
  66   0.0000       2.161737        58.8239 
  67   0.0000       2.180292        59.3288 
  68   0.0000       2.213504        60.2325 
  69   0.0000       2.411569        65.6221 
  70   0.0000       2.426809        66.0368 
  71   0.0000       2.492862        67.8342 
  72   0.0000       2.694378        73.3178 
  73   0.0000       2.726587        74.1942 

                    ********************************
                    * MULLIKEN POPULATION ANALYSIS *
                    ********************************

------------------------------------------
FOD BASED MULLIKEN REDUCED ORBITAL CHARGES
------------------------------------------
  0 C s       :    -0.000000  s :    -0.000000
      pz      :     0.000000  p :     0.000000
      px      :     0.000000
      py      :     0.000000
      dz2     :     0.000000  d :     0.000000
      dxz     :     0.000000
      dyz     :     0.000000
      dx2y2   :     0.000000
      dxy     :     0.000000
  1 C s       :     0.000000  s :     0.000000
      pz      :     0.000000  p :     0.000000
      px      :     0.000000
      py      :     0.000000
      dz2     :     0.000000  d :     0.000000
      dxz     :     0.000000
      dyz     :     0.000000
      dx2y2   :     0.000000
      dxy     :    -0.000000
  2 C s       :    -0.000000  s :    -0.000000
      pz      :     0.000000  p :     0.000000
      px      :     0.000000
      py      :     0.000000
      dz2     :     0.000000  d :     0.000000
      dxz     :     0.000000
      dyz     :     0.000000
      dx2y2   :     0.000000
      dxy     :     0.000000
  3 C s       :    -0.000000  s :    -0.000000
      pz      :     0.000000  p :     0.000000
      px      :     0.000000
      py      :     0.000000
      dz2     :     0.000000  d :     0.000000
      dxz     :     0.000000
      dyz     :     0.000000
      dx2y2   :     0.000000
      dxy     :     0.000000
  4 H s       :     0.000000  s :     0.000000
  5 H s       :     0.000000  s :     0.000000
  6 H s       :     0.000000  s :     0.000000
  7 H s       :     0.000000  s :     0.000000
  8 H s       :     0.000000  s :     0.000000
  9 H s       :     0.000000  s :     0.000000
 10 H s       :     0.000000  s :     0.000000
 11 H s       :     0.000000  s :     0.000000
 12 H s       :     0.000000  s :     0.000000


                     *******************************
                     * LOEWDIN POPULATION ANALYSIS *
                     *******************************

-------------------------------------------
LOEWDIN ATOMIC CHARGES AND SPIN POPULATIONS
-------------------------------------------
   0 C :   -0.179968    0.008115
   1 C :   -0.204675    0.935297
   2 C :   -0.304603    0.050496
   3 C :   -0.310678    0.008513
   4 H :    0.108355    0.003245
   5 H :    0.099566   -0.007616
   6 H :    0.102339   -0.009254
   7 H :    0.122900    0.004440
   8 H :    0.117845    0.003831
   9 H :    0.115200    0.003631
  10 H :    0.112646   -0.000539
  11 H :    0.105826   -0.000647
  12 H :    0.115245    0.000488

----------------------------------------------------
LOEWDIN REDUCED ORBITAL CHARGES AND SPIN POPULATIONS
----------------------------------------------------
CHARGE
  0 C s       :     2.872319  s :     2.872319
      pz      :     1.079670  p :     3.194609
      px      :     1.044092
      py      :     1.070847
      dz2     :     0.028872  d :     0.113040
      dxz     :     0.016768
      dyz     :     0.014274
      dx2y2   :     0.029421
      dxy     :     0.023704
  1 C s       :     3.063072  s :     3.063072
      pz      :     1.078583  p :     3.077012
      px      :     0.959200
      py      :     1.039230
      dz2     :     0.014071  d :     0.064591
      dxz     :     0.014406
      dyz     :     0.011654
      dx2y2   :     0.013455
      dxy     :     0.011004
  2 C s       :     2.957536  s :     2.957536
      pz      :     1.108700  p :     3.273742
      px      :     1.061891
      py      :     1.103150
      dz2     :     0.011870  d :     0.073325
      dxz     :     0.012972
      dyz     :     0.018362
      dx2y2   :     0.011108
      dxy     :     0.019014
  3 C s       :     2.953905  s :     2.953905
      pz      :     1.101803  p :     3.281879
      px      :     1.091576
      py      :     1.088499
      dz2     :     0.004736  d :     0.074894
      dxz     :     0.020683
      dyz     :     0.020986
      dx2y2   :     0.006143
      dxy     :     0.022346
  4 H s       :     0.891645  s :     0.891645
  5 H s       :     0.900434  s :     0.900434
  6 H s       :     0.897661  s :     0.897661
  7 H s       :     0.877100  s :     0.877100
  8 H s       :     0.882155  s :     0.882155
  9 H s       :     0.884800  s :     0.884800
 10 H s       :     0.887354  s :     0.887354
 11 H s       :     0.894174  s :     0.894174
 12 H s       :     0.884755  s :     0.884755

SPIN
  0 C s       :    -0.001984  s :    -0.001984
      pz      :    -0.001635  p :     0.000232
      px      :     0.003471
      py      :    -0.001604
      dz2     :     0.000871  d :     0.009868
      dxz     :     0.000366
      dyz     :     0.000415
      dx2y2   :     0.001758
      dxy     :     0.006459
  1 C s       :     0.116145  s :     0.116145
      pz      :     0.040886  p :     0.822917
      px      :     0.656215
      py      :     0.125816
      dz2     :    -0.000898  d :    -0.003766
      dxz     :    -0.001549
      dyz     :     0.000181
      dx2y2   :    -0.001292
      dxy     :    -0.000208
  2 C s       :     0.013846  s :     0.013846
      pz      :     0.001112  p :     0.035477
      px      :     0.017076
      py      :     0.017288
      dz2     :     0.000019  d :     0.001172
      dxz     :     0.000163
      dyz     :    -0.000023
      dx2y2   :     0.000433
      dxy     :     0.000579
  3 C s       :     0.002332  s :     0.002332
      pz      :     0.000769  p :     0.006512
      px      :     0.000267
      py      :     0.005476
      dz2     :     0.000025  d :    -0.000331
      dxz     :    -0.000117
      dyz     :    -0.000076
      dx2y2   :    -0.000115
      dxy     :    -0.000048
  4 H s       :     0.003245  s :     0.003245
  5 H s       :    -0.007616  s :    -0.007616
  6 H s       :    -0.009254  s :    -0.009254
  7 H s       :     0.004440  s :     0.004440
  8 H s       :     0.003831  s :     0.003831
  9 H s       :     0.003631  s :     0.003631
 10 H s       :    -0.000539  s :    -0.000539
 11 H s       :    -0.000647  s :    -0.000647
 12 H s       :     0.000488  s :     0.000488


                      *****************************
                      * MAYER POPULATION ANALYSIS *
                      *****************************

  NA   - Mulliken gross atomic population
  ZA   - Total nuclear charge
  QA   - Mulliken gross atomic charge
  VA   - Mayer's total valence
  BVA  - Mayer's bonded valence
  FA   - Mayer's free valence

  ATOM       NA         ZA         QA         VA         BVA        FA
  0 C      6.1586     6.0000    -0.1586     4.2032     4.2006     0.0026
  1 C      6.1814     6.0000    -0.1814     3.9036     3.0621     0.8415
  2 C      6.2371     6.0000    -0.2371     3.9344     3.9324     0.0020
  3 C      6.2315     6.0000    -0.2315     3.9381     3.9380     0.0001
  4 H      0.9242     1.0000     0.0758     0.9388     0.9388     0.0000
  5 H      0.9178     1.0000     0.0822     0.9508     0.9499     0.0010
  6 H      0.9130     1.0000     0.0870     0.9447     0.9437     0.0010
  7 H      0.8973     1.0000     0.1027     0.9559     0.9558     0.0001
  8 H      0.9023     1.0000     0.0977     0.9709     0.9709     0.0001
  9 H      0.9048     1.0000     0.0952     0.9726     0.9725     0.0000
 10 H      0.9095     1.0000     0.0905     0.9542     0.9542     0.0000
 11 H      0.9212     1.0000     0.0788     0.9675     0.9675     0.0000
 12 H      0.9013     1.0000     0.0987     0.9652     0.9652     0.0000

  Mayer bond orders larger than 0.100000
B(  0-C ,  1-C ) :   1.1108 B(  0-C ,  2-C ) :   1.0568 B(  0-C ,  3-C ) :   1.0833 
B(  0-C ,  4-H ) :   0.9323 B(  1-C ,  5-H ) :   0.9446 B(  1-C ,  6-H ) :   0.9460 
B(  2-C ,  7-H ) :   0.9534 B(  2-C ,  8-H ) :   0.9476 B(  2-C ,  9-H ) :   0.9599 
B(  3-C , 10-H ) :   0.9605 B(  3-C , 11-H ) :   0.9593 B(  3-C , 12-H ) :   0.9615 


-------
TIMINGS
-------

Total SCF time: 0 days 0 hours 6 min 34 sec 

Total time                  ....     394.515 sec
Sum of individual times     ....     329.785 sec  ( 83.6%)

Fock matrix formation       ....     278.880 sec  ( 70.7%)
  XC integration            ....     150.890 sec  ( 54.1% of F)
    Basis function eval.    ....       0.903 sec  (  0.6% of XC)
    Density eval.           ....       0.759 sec  (  0.5% of XC)
    XC-Functional eval.     ....       0.450 sec  (  0.3% of XC)
    XC-Potential eval.      ....       0.952 sec  (  0.6% of XC)
Diagonalization             ....      11.634 sec  (  2.9%)
Density matrix formation    ....      18.968 sec  (  4.8%)
Population analysis         ....       8.023 sec  (  2.0%)
Initial guess               ....       0.221 sec  (  0.1%)
Orbital Transformation      ....       0.000 sec  (  0.0%)
Orbital Orthonormalization  ....       0.000 sec  (  0.0%)
DIIS solution               ....       9.893 sec  (  2.5%)
Grid generation             ....       2.166 sec  (  0.5%)


-------------------------------------------------------------------------------
                          DFT DISPERSION CORRECTION                            
                                                                               
                              DFTD3 V3.1  Rev 1                                
                          USING Becke-Johnson damping                          
-------------------------------------------------------------------------------
The B3LYP functional is recognized
Active option DFTDOPT                   ...         4   

molecular C6(AA) [au] = 1132.239496 


            DFT-D V3
 parameters
 s6 scaling factor         :     1.0000 
 a1 scaling factor         :     0.3981 
 s8 scaling factor         :     1.9889 
 a2 scaling factor         :     4.4211 
 ad hoc parameters k1-k3   :    16.0000     1.3333    -4.0000 

 Edisp/kcal,au: -9.252637743783  -0.014745015238 
 E6   /kcal   :  -4.590702436 
 E8   /kcal   :  -4.661935308 
 % E8         :  50.384932787 

-------------------------   ----------------
Dispersion correction           -0.014745015
-------------------------   ----------------


-------------------------   --------------------
FINAL SINGLE POINT ENERGY      -157.507422511936
-------------------------   --------------------

------------------------------------------------------------------------------
                         ORCA SCF GRADIENT CALCULATION
------------------------------------------------------------------------------

Gradient of the Kohn-Sham DFT energy:
Kohn-Sham wavefunction type      ... UKS
Hartree-Fock exchange scaling    ...    0.200
Number of operators              ...    2
Number of atoms                  ...   13
Basis set dimensions             ...   74
Integral neglect threshold       ... 1.0e-12
Integral primitive cutoff        ... 1.0e-14

Nuclear repulsion gradient       ... done
One Electron Gradient            ... done
Pre-screening matrix             ... done
Starting the two electron gradient:
Two electron gradient done
Exchange-correlation gradient    ... done
Dispersion correction            ... done

------------------
CARTESIAN GRADIENT
------------------

   1   C   :   -0.023747975   -0.017415952   -0.031974273
   2   C   :    0.051905459    0.003183162    0.009960895
   3   C   :    0.003040234    0.003315151   -0.006390750
   4   C   :   -0.011512569    0.035303814    0.015569665
   5   H   :    0.007617635    0.000593618    0.006530880
   6   H   :   -0.020795563   -0.009301919   -0.000652130
   7   H   :   -0.019158268   -0.010496549   -0.002232314
   8   H   :    0.008763948    0.006860389    0.006616277
   9   H   :    0.012093418    0.004966901   -0.002149227
  10   H   :    0.004548773   -0.002480729   -0.000529306
  11   H   :    0.002124979   -0.008463985    0.004903178
  12   H   :   -0.013076661   -0.004142037    0.000167769
  13   H   :   -0.001803409   -0.001921863    0.000179334

Difference to translation invariance:
           :   -0.0000000000   -0.0000000000   -0.0000000000

Norm of the cartesian gradient     ...    0.0902433477
RMS gradient                       ...    0.0144505007
MAX gradient                       ...    0.0519054587

-------
TIMINGS
-------

Total SCF gradient time            ...        4.669 sec

One electron gradient       ....       0.029 sec  (  0.6%)
Prescreening matrices       ....       0.027 sec  (  0.6%)
Two electron gradient       ....       1.424 sec  ( 30.5%)
XC gradient                 ....       2.604 sec  ( 55.8%)
------------------------------------------------------------------------------
                         ORCA GEOMETRY RELAXATION STEP
------------------------------------------------------------------------------

Reading the OPT-File                    .... done
Getting information on internals        .... done
Copying old internal coords+grads       .... done
Making the new internal coordinates     .... (new redundants).... done
Validating the new internal coordinates .... (new redundants).... done
Calculating the B-matrix                .... done
Calculating the G,G- and P matrices     .... done
Transforming gradient to internals      .... done
Projecting the internal gradient        .... done
Number of atoms                         ....  13
Number of internal coordinates          ....  57
Current Energy                          ....  -157.507422512 Eh
Current gradient norm                   ....     0.090243348 Eh/bohr
Maximum allowed component of the step   ....  0.300
Current trust radius                    ....  0.300
Evaluating the initial hessian          ....  (Almloef) done
Projecting the Hessian                  .... done
Forming the augmented Hessian           .... done
Diagonalizing the augmented Hessian     .... done
Last element of RFO vector              ....  0.940428405
Lowest eigenvalues of augmented Hessian:
 -0.025100130  0.011630922  0.012719044  0.014004035  0.069650118
Length of the computed step             ....  0.361528622
Warning: the length of the step is outside the trust region - taking restricted step instead
The input lambda is                     ....    -0.025100
   iter:   1  x=   -0.045652  g=    1.980495 f(x)=     0.040703
   iter:   2  x=   -0.054083  g=    1.158000 f(x)=     0.009763
   iter:   3  x=   -0.054923  g=    0.972744 f(x)=     0.000817
   iter:   4  x=   -0.054930  g=    0.956879 f(x)=     0.000007
   iter:   5  x=   -0.054930  g=    0.956749 f(x)=     0.000000
   iter:   6  x=   -0.054930  g=    0.956749 f(x)=     0.000000
The output lambda is                    ....    -0.054930 (6 iterations)
The final length of the internal step   ....  0.300000000
Converting the step to cartesian space:
 Initial RMS(Int)=    0.0397359707
Transforming coordinates:
 Iter   0:  RMS(Cart)=    0.0913410773 RMS(Int)=    0.0397586270
 Iter   1:  RMS(Cart)=    0.0043103934 RMS(Int)=    0.0035263165
 Iter   2:  RMS(Cart)=    0.0003508842 RMS(Int)=    0.0003064819
 Iter   3:  RMS(Cart)=    0.0000540299 RMS(Int)=    0.0000429868
 Iter   4:  RMS(Cart)=    0.0000049759 RMS(Int)=    0.0000047489
 Iter   5:  RMS(Cart)=    0.0000007260 RMS(Int)=    0.0000005538
 Iter   6:  RMS(Cart)=    0.0000000755 RMS(Int)=    0.0000000717
done
Storing new coordinates                 .... done

                                .--------------------.
          ----------------------|Geometry convergence|-------------------------
          Item                value                   Tolerance       Converged
          ---------------------------------------------------------------------
          RMS gradient        0.0109087442            0.0001000000      NO
          MAX gradient        0.0380143612            0.0003000000      NO
          RMS step            0.0397359707            0.0020000000      NO
          MAX step            0.1106693254            0.0040000000      NO
          ........................................................
          Max(Bonds)      0.0423      Max(Angles)    5.73
          Max(Dihed)        6.34      Max(Improp)    0.00
          ---------------------------------------------------------------------

The optimization has not yet converged - more geometry cycles are needed


    ---------------------------------------------------------------------------
                         Redundant Internal Coordinates
                            (Angstroem and degrees)

        Definition                    Value    dE/dq     Step     New-Value
    ----------------------------------------------------------------------------
     1. B(C   1,C   0)                1.5028 -0.016466  0.0186    1.5215   
     2. B(C   2,C   0)                1.5247 -0.029189  0.0354    1.5601   
     3. B(C   3,C   0)                1.4978 -0.038014  0.0423    1.5401   
     4. B(H   4,C   0)                1.1204  0.007508 -0.0105    1.1099   
     5. B(H   5,C   1)                1.1192  0.005650 -0.0079    1.1113   
     6. B(H   6,C   1)                1.1200  0.007266 -0.0102    1.1098   
     7. B(H   7,C   2)                1.1015 -0.001290  0.0017    1.1032   
     8. B(H   8,C   2)                1.1004 -0.000170  0.0002    1.1006   
     9. B(H   9,C   2)                1.0979 -0.004374  0.0057    1.1036   
    10. B(H  10,C   3)                1.1206  0.009339 -0.0131    1.1075   
    11. B(H  11,C   3)                1.1201  0.008638 -0.0121    1.1080   
    12. B(H  12,C   3)                1.1002 -0.002353  0.0031    1.1033   
    13. A(C   1,C   0,H   4)          105.73 -0.003288    0.38    106.11   
    14. A(C   2,C   0,H   4)          110.95  0.007960   -1.88    109.07   
    15. A(C   1,C   0,C   2)          107.27 -0.001904    0.51    107.78   
    16. A(C   1,C   0,C   3)          114.27  0.008721   -1.25    113.02   
    17. A(C   2,C   0,C   3)          112.15 -0.009487    1.81    113.95   
    18. A(C   3,C   0,H   4)          106.32 -0.001207    0.24    106.56   
    19. A(H   5,C   1,H   6)          104.36  0.001433    3.46    107.82   
    20. A(C   0,C   1,H   6)          106.16 -0.029191    5.73    111.89   
    21. A(C   0,C   1,H   5)          107.53 -0.026799    5.31    112.84   
    22. A(H   7,C   2,H   9)          108.65  0.006671   -1.07    107.58   
    23. A(C   0,C   2,H   9)          112.66  0.001927   -0.16    112.49   
    24. A(H   7,C   2,H   8)          114.56  0.015038   -2.59    111.97   
    25. A(C   0,C   2,H   8)          106.17 -0.015794    2.48    108.65   
    26. A(H   8,C   2,H   9)          107.90  0.005992   -0.74    107.16   
    27. A(C   0,C   2,H   7)          107.00 -0.014103    2.13    109.13   
    28. A(H  11,C   3,H  12)          108.47  0.006288   -0.93    107.54   
    29. A(H  10,C   3,H  12)          108.37  0.000197   -0.64    107.73   
    30. A(C   0,C   3,H  12)          114.69  0.004792   -0.98    113.71   
    31. A(H  10,C   3,H  11)          104.43  0.003239    0.15    104.59   
    32. A(C   0,C   3,H  11)          107.30 -0.015863    2.78    110.08   
    33. A(C   0,C   3,H  10)          112.98  0.001304   -0.26    112.72   
    34. D(H   6,C   1,C   0,C   3)   -174.16 -0.013673    4.35   -169.81   
    35. D(H   6,C   1,C   0,H   4)    -57.59 -0.012556    4.21    -53.38   
    36. D(H   6,C   1,C   0,C   2)     60.86 -0.005952    2.48     63.34   
    37. D(H   5,C   1,C   0,H   4)   -168.84  0.010621   -4.61   -173.45   
    38. D(H   5,C   1,C   0,C   2)    -50.38  0.017225   -6.34    -56.72   
    39. D(H   5,C   1,C   0,C   3)     74.60  0.009504   -4.47     70.13   
    40. D(H   7,C   2,C   0,C   1)   -121.59  0.002371   -0.60   -122.19   
    41. D(H   9,C   2,C   0,C   1)     -2.25  0.002539   -0.63     -2.88   
    42. D(H   8,C   2,C   0,H   4)   -129.33  0.000149   -0.30   -129.64   
    43. D(H   8,C   2,C   0,C   1)    115.64  0.000992   -0.07    115.57   
    44. D(H   7,C   2,C   0,H   4)     -6.56  0.001528   -0.84     -7.40   
    45. D(H   7,C   2,C   0,C   3)    112.17 -0.000892   -0.62    111.55   
    46. D(H   9,C   2,C   0,C   3)   -128.50 -0.000725   -0.64   -129.14   
    47. D(H   9,C   2,C   0,H   4)    112.77  0.001695   -0.86    111.91   
    48. D(H   8,C   2,C   0,C   3)    -10.60 -0.002271   -0.08    -10.68   
    49. D(H  12,C   3,C   0,H   4)   -113.79 -0.001070    0.60   -113.19   
    50. D(H  12,C   3,C   0,C   1)      2.43 -0.001099    0.54      2.97   
    51. D(H  11,C   3,C   0,H   4)    125.65 -0.000700    0.41    126.06   
    52. D(H  11,C   3,C   0,C   2)      4.22 -0.004095    1.50      5.73   
    53. D(H  11,C   3,C   0,C   1)   -118.12 -0.000729    0.35   -117.78   
    54. D(H  10,C   3,C   0,H   4)     11.09  0.004332   -1.33      9.76   
    55. D(H  12,C   3,C   0,C   2)    124.78 -0.004465    1.69    126.48   
    56. D(H  10,C   3,C   0,C   2)   -110.34  0.000937   -0.23   -110.57   
    57. D(H  10,C   3,C   0,C   1)    127.31  0.004303   -1.39    125.92   
    ----------------------------------------------------------------------------

Time needed for optimization step       :     5.34 sec

         *************************************************************
         *                GEOMETRY OPTIMIZATION CYCLE   2            *
         *************************************************************
---------------------------------
CARTESIAN COORDINATES (ANGSTROEM)
---------------------------------
  C      0.070133   -0.088685    0.485117
  C      0.183000    1.415364    0.285159
  C     -1.386182   -0.510375    0.117298
  C      1.158531   -0.878974   -0.265128
  H      0.237370   -0.268964    1.567440
  H     -0.078480    1.728985   -0.748432
  H     -0.486829    1.970613    0.974175
  H     -1.849168   -1.006175    0.987233
  H     -1.349247   -1.172180   -0.761301
  H     -2.020294    0.352043   -0.151363
  H      1.725891   -1.560524    0.398303
  H      0.693516   -1.545876   -1.017829
  H      1.887188   -0.239716   -0.792009

----------------------------
CARTESIAN COORDINATES (A.U.)
----------------------------
  NO LB      ZA    FRAG     MASS         X           Y           Z
   0 C     6.0000    0    12.011    0.132533   -0.167591    0.916738
   1 C     6.0000    0    12.011    0.345819    2.674650    0.538873
   2 C     6.0000    0    12.011   -2.619504   -0.964469    0.221660
   3 C     6.0000    0    12.011    2.189306   -1.661020   -0.501020
   4 H     1.0000    0     1.008    0.448564   -0.508267    2.962032
   5 H     1.0000    0     1.008   -0.148305    3.267309   -1.414332
   6 H     1.0000    0     1.008   -0.919973    3.723918    1.840925
   7 H     1.0000    0     1.008   -3.494422   -1.901396    1.865600
   8 H     1.0000    0     1.008   -2.549707   -2.215100   -1.438650
   9 H     1.0000    0     1.008   -3.817802    0.665264   -0.286035
  10 H     1.0000    0     1.008    3.261461   -2.948963    0.752684
  11 H     1.0000    0     1.008    1.310556   -2.921281   -1.923419
  12 H     1.0000    0     1.008    3.566268   -0.452997   -1.496680

--------------------------------
INTERNAL COORDINATES (ANGSTROEM)
--------------------------------
 C      0   0   0     0.000000000000     0.00000000     0.00000000
 C      1   0   0     1.521474847452     0.00000000     0.00000000
 C      1   2   0     1.560117611702   107.78579828     0.00000000
 C      1   2   3     1.540140680706   113.00472029   126.83834047
 H      1   2   3     1.109905779931   106.11381990   243.27216232
 H      2   1   3     1.111324138692   112.56616469   303.07339957
 H      2   1   3     1.109826277103   111.60515966    63.55500647
 H      3   1   2     1.103159771218   109.10662147   237.82851650
 H      3   1   2     1.100584122914   108.62770959   115.57039982
 H      3   1   2     1.103648884757   112.48919272   357.12676984
 H      4   1   2     1.107496766789   112.70573504   125.92608029
 H      4   1   2     1.107951058987   110.07187597   242.23493714
 H      4   1   2     1.103265262978   113.70650016     2.96906373

---------------------------
INTERNAL COORDINATES (A.U.)
---------------------------
 C      0   0   0     0.000000000000     0.00000000     0.00000000
 C      1   0   0     2.875170781333     0.00000000     0.00000000
 C      1   2   0     2.948195022824   107.78579828     0.00000000
 C      1   2   3     2.910444094246   113.00472029   126.83834047
 H      1   2   3     2.097417958526   106.11381990   243.27216232
 H      2   1   3     2.100098268145   112.56616469   303.07339957
 H      2   1   3     2.097267719955   111.60515966    63.55500647
 H      3   1   2     2.084669849561   109.10662147   237.82851650
 H      3   1   2     2.079802579650   108.62770959   115.57039982
 H      3   1   2     2.085594140198   112.48919272   357.12676984
 H      4   1   2     2.092865583434   112.70573504   125.92608029
 H      4   1   2     2.093724071274   110.07187597   242.23493714
 H      4   1   2     2.084869200097   113.70650016     2.96906373


Diagonalization of the overlap matrix:
Smallest eigenvalue                        ... 2.115e-03
Time for diagonalization                   ...    0.001 sec
Threshold for overlap eigenvalues          ... 1.000e-08
Number of eigenvalues below threshold      ... 0
Time for construction of square roots      ...    3.100 sec
Total time needed                          ...    3.101 sec

-------------------
DFT GRID GENERATION
-------------------

General Integration Accuracy     IntAcc      ...  4.340
Radial Grid Type                 RadialGrid  ... Gauss-Chebyshev
Angular Grid (max. acc.)         AngularGrid ... Lebedev-110
Angular grid pruning method      GridPruning ... 3 (G Style)
Weight generation scheme         WeightScheme... Becke
Basis function cutoff            BFCut       ...    1.0000e-12
Integration weight cutoff        WCut        ...    1.0000e-14
Grids for H and He will be reduced by one unit

# of grid points (after initial pruning)     ...  13770 (   0.0 sec)
# of grid points (after weights+screening)   ...  12824 (   0.0 sec)
nearest neighbour list constructed           ...    0.0 sec
Grid point re-assignment to atoms done       ...    0.0 sec
Grid point division into batches done        ...    0.0 sec
Reduced shell lists constructed in    0.1 sec

Total number of grid points                  ...    12824
Total number of batches                      ...      209
Average number of points per batch           ...       61
Average number of grid points per atom       ...      986
Average number of shells per batch           ...    37.50 (89.29%)
Average number of basis functions per batch  ...    66.87 (90.37%)
Average number of large shells per batch     ...    32.77 (87.39%)
Average number of large basis fcns per batch ...    58.17 (86.99%)
Maximum spatial batch extension              ...  19.71, 19.90, 20.05 au
Average spatial batch extension              ...   4.05,  4.21,  3.96 au

Time for grid setup =    5.156 sec

--------------
SCF ITERATIONS
--------------
ITER       Energy         Delta-E        Max-DP      RMS-DP      [F,P]     Damp
               ***  Starting incremental Fock matrix formation  ***
  0   -157.5053150139   0.000000000000 0.00431211  0.00021259  0.0174497 0.7000
  1   -157.5062582452  -0.000943231281 0.00407753  0.00019421  0.0141065 0.7000
                               ***Turning on DIIS***
  2   -157.5069928952  -0.000734650044 0.01076727  0.00050287  0.0111689 0.0000
  3   -157.5088750113  -0.001882116035 0.00218985  0.00009328  0.0031116 0.0000
  4   -157.5089327506  -0.000057739388 0.00104421  0.00005002  0.0016615 0.0000
  5   -157.5089492884  -0.000016537761 0.00134982  0.00005338  0.0009453 0.0000
  6   -157.5089569961  -0.000007707673 0.00029351  0.00001440  0.0002844 0.0000
  7   -157.5089577371  -0.000000741017 0.00008217  0.00000399  0.0000775 0.0000
  8   -157.5089577932  -0.000000056089 0.00003426  0.00000153  0.0000498 0.0000
  9   -157.5089578052  -0.000000011965 0.00000697  0.00000040  0.0000080 0.0000
 10   -157.5089578060  -0.000000000796 0.00000339  0.00000016  0.0000039 0.0000
 11   -157.5089578061  -0.000000000123 0.00000167  0.00000006  0.0000010 0.0000
 12   -157.5089578061  -0.000000000021 0.00000053  0.00000002  0.0000006 0.0000
 13   -157.5089578061  -0.000000000003 0.00000031  0.00000001  0.0000003 0.0000
 14   -157.5089578061  -0.000000000001 0.00000013  0.00000001  0.0000001 0.0000
 15   -157.5089578061  -0.000000000015 0.00000005  0.00000000  0.0000001 0.0000
                 **** Energy Check signals convergence ****

 Fermi smearing  (ALPHA): E(HOMO(Eh)) = -0.317395 MUE = -0.083634 gap=   7.638 eV
 Fermi smearing   (BETA): E(HOMO(Eh)) = -0.314627 MUE = -0.186555 gap=   6.945 eV

N_FOD(alpha) =  0.000000
 N_FOD(beta) =  0.000000
       N_FOD =  0.000000

               *****************************************************
               *                     SUCCESS                       *
               *           SCF CONVERGED AFTER  16 CYCLES          *
               *****************************************************

Setting up the final grid:

General Integration Accuracy     IntAcc      ...  4.670
Radial Grid Type                 RadialGrid  ... Gauss-Chebyshev
Angular Grid (max. acc.)         AngularGrid ... Lebedev-302
Angular grid pruning method      GridPruning ... 3 (G Style)
Weight generation scheme         WeightScheme... Becke
Basis function cutoff            BFCut       ...    1.0000e-12
Integration weight cutoff        WCut        ...    1.0000e-14
Grids for H and He will be reduced by one unit

# of grid points (after initial pruning)     ...  55394 (   0.0 sec)
# of grid points (after weights+screening)   ...  51215 (   0.1 sec)
nearest neighbour list constructed           ...    0.0 sec
Grid point re-assignment to atoms done       ...    0.0 sec
Grid point division into batches done        ...    0.1 sec
Reduced shell lists constructed in    0.3 sec

Total number of grid points                  ...    51215
Total number of batches                      ...      806
Average number of points per batch           ...       63
Average number of grid points per atom       ...     3940
Average number of shells per batch           ...    34.95 (83.21%)
Average number of basis functions per batch  ...    62.10 (83.91%)
Average number of large shells per batch     ...    29.87 (85.46%)
Average number of large basis fcns per batch ...    52.48 (84.52%)
Maximum spatial batch extension              ...  20.73, 17.81, 19.51 au
Average spatial batch extension              ...   2.67,  2.67,  2.58 au

Final grid set up in    4.6 sec
Final integration                            ... done (  13.5 sec)
Change in XC energy                          ...     0.000878002
Integrated number of electrons               ...    33.000107800
Previous integrated no of electrons          ...    33.007297976
Total Energy       :         -157.50807980 Eh           -4286.01275 eV
  Last Energy change         ...    2.4414e-11  Tolerance :   1.0000e-09
  Last MAX-Density change    ...    3.2616e-08  Tolerance :   1.0000e-08
             **** THE GBW FILE WAS UPDATED (orca4.gbw) ****
             **** DENSITY FILE WAS UPDATED (orca4.scfp) ****
             **** ENERGY FILE WAS UPDATED (orca4.en.tmp) ****
             **** THE GBW FILE WAS UPDATED (orca4.gbw) ****
             **** DENSITY FILE WAS UPDATED (orca4.scfp) ****
Total SCF time: 0 days 0 hours 9 min 13 sec 


-------------------------------------------------------------------------------
                          DFT DISPERSION CORRECTION                            
                                                                               
                              DFTD3 V3.1  Rev 1                                
                          USING Becke-Johnson damping                          
-------------------------------------------------------------------------------
-------------------------   ----------------
Dispersion correction           -0.014381121
-------------------------   ----------------


-------------------------   --------------------
FINAL SINGLE POINT ENERGY      -157.522460924307
-------------------------   --------------------

------------------------------------------------------------------------------
                         ORCA SCF GRADIENT CALCULATION
------------------------------------------------------------------------------

Gradient of the Kohn-Sham DFT energy:
Kohn-Sham wavefunction type      ... UKS
Hartree-Fock exchange scaling    ...    0.200
Number of operators              ...    2
Number of atoms                  ...   13
Basis set dimensions             ...   74
Integral neglect threshold       ... 1.0e-12
Integral primitive cutoff        ... 1.0e-14

Nuclear repulsion gradient       ... done
One Electron Gradient            ... done
Pre-screening matrix             ... done
Starting the two electron gradient:
Two electron gradient done
Exchange-correlation gradient    ... done
Dispersion correction            ... done

------------------
CARTESIAN GRADIENT
------------------

   1   C   :   -0.013251742   -0.015208709   -0.009704630
   2   C   :    0.033989080    0.008344569    0.007223407
   3   C   :   -0.006616671   -0.000743687   -0.004221294
   4   C   :    0.001556804    0.012798573    0.006354764
   5   H   :    0.004246303    0.000536208    0.002205337
   6   H   :   -0.014422103   -0.001946565   -0.000091766
   7   H   :   -0.012206404   -0.003608032   -0.004035699
   8   H   :    0.003688692    0.004280180    0.004058567
   9   H   :    0.005326898    0.003948356   -0.000794071
  10   H   :    0.000245659   -0.000916987   -0.001134057
  11   H   :   -0.000020768   -0.003667273   -0.000927086
  12   H   :   -0.002836855   -0.002017967    0.002232974
  13   H   :    0.000301106   -0.001798664   -0.001166448

Difference to translation invariance:
           :   -0.0000000000    0.0000000000   -0.0000000000

Norm of the cartesian gradient     ...    0.0509066200
RMS gradient                       ...    0.0081515831
MAX gradient                       ...    0.0339890804

-------
TIMINGS
-------

Total SCF gradient time            ...        5.583 sec

One electron gradient       ....       0.026 sec  (  0.5%)
Prescreening matrices       ....       0.024 sec  (  0.4%)
Two electron gradient       ....       1.321 sec  ( 23.7%)
XC gradient                 ....       2.313 sec  ( 41.4%)
------------------------------------------------------------------------------
                         ORCA GEOMETRY RELAXATION STEP
------------------------------------------------------------------------------

Reading the OPT-File                    .... done
Getting information on internals        .... done
Copying old internal coords+grads       .... done
Making the new internal coordinates     .... (new redundants).... done
Validating the new internal coordinates .... (new redundants).... done
Calculating the B-matrix                .... done
Calculating the G,G- and P matrices     .... done
Transforming gradient to internals      .... done
Projecting the internal gradient        .... done
Number of atoms                         ....  13
Number of internal coordinates          ....  57
Current Energy                          ....  -157.522460924 Eh
Current gradient norm                   ....     0.050906620 Eh/bohr
Maximum allowed component of the step   ....  0.300
Current trust radius                    ....  0.300
Updating the Hessian (BFGS)             .... done
Forming the augmented Hessian           .... done
Diagonalizing the augmented Hessian     .... done
Last element of RFO vector              ....  0.950538139
Lowest eigenvalues of augmented Hessian:
 -0.009320040  0.011621035  0.012688917  0.014012052  0.070004395
Length of the computed step             ....  0.326770546
Warning: the length of the step is outside the trust region - taking restricted step instead
The input lambda is                     ....    -0.009320
   iter:   1  x=   -0.014957  g=    2.976759 f(x)=     0.016779
   iter:   2  x=   -0.015950  g=    2.248613 f(x)=     0.002235
   iter:   3  x=   -0.015973  g=    2.153594 f(x)=     0.000048
   iter:   4  x=   -0.015973  g=    2.151552 f(x)=     0.000000
   iter:   5  x=   -0.015973  g=    2.151551 f(x)=     0.000000
The output lambda is                    ....    -0.015973 (5 iterations)
The final length of the internal step   ....  0.300000000
Converting the step to cartesian space:
 Initial RMS(Int)=    0.0397359707
Transforming coordinates:
 Iter   0:  RMS(Cart)=    0.0646953067 RMS(Int)=    0.0398433536
 Iter   1:  RMS(Cart)=    0.0037419378 RMS(Int)=    0.0030612593
 Iter   2:  RMS(Cart)=    0.0002854093 RMS(Int)=    0.0002902456
 Iter   3:  RMS(Cart)=    0.0000385048 RMS(Int)=    0.0000308037
 Iter   4:  RMS(Cart)=    0.0000037796 RMS(Int)=    0.0000037077
 Iter   5:  RMS(Cart)=    0.0000004502 RMS(Int)=    0.0000003723
 Iter   6:  RMS(Cart)=    0.0000000551 RMS(Int)=    0.0000000496
done
Storing new coordinates                 .... done

                                .--------------------.
          ----------------------|Geometry convergence|-------------------------
          Item                value                   Tolerance       Converged
          ---------------------------------------------------------------------
          Energy change      -0.0150384124            0.0000050000      NO
          RMS gradient        0.0042707712            0.0001000000      NO
          MAX gradient        0.0117766220            0.0003000000      NO
          RMS step            0.0397359707            0.0020000000      NO
          MAX step            0.1178892114            0.0040000000      NO
          ........................................................
          Max(Bonds)      0.0147      Max(Angles)    4.85
          Max(Dihed)        6.75      Max(Improp)    0.00
          ---------------------------------------------------------------------

The optimization has not yet converged - more geometry cycles are needed


    ---------------------------------------------------------------------------
                         Redundant Internal Coordinates
                            (Angstroem and degrees)

        Definition                    Value    dE/dq     Step     New-Value
    ----------------------------------------------------------------------------
     1. B(C   1,C   0)                1.5215  0.002900 -0.0047    1.5168   
     2. B(C   2,C   0)                1.5601 -0.003757  0.0094    1.5695   
     3. B(C   3,C   0)                1.5401 -0.006588  0.0147    1.5548   
     4. B(H   4,C   0)                1.1099  0.002703 -0.0069    1.1030   
     5. B(H   5,C   1)                1.1113  0.002927 -0.0074    1.1039   
     6. B(H   6,C   1)                1.1098  0.003050 -0.0078    1.1021   
     7. B(H   7,C   2)                1.1032 -0.000269  0.0007    1.1038   
     8. B(H   8,C   2)                1.1006 -0.001570  0.0036    1.1042   
     9. B(H   9,C   2)                1.1036 -0.000576  0.0015    1.1052   
    10. B(H  10,C   3)                1.1075  0.001689 -0.0045    1.1030   
    11. B(H  11,C   3)                1.1080  0.000899 -0.0025    1.1054   
    12. B(H  12,C   3)                1.1033 -0.000291  0.0008    1.1040   
    13. A(C   1,C   0,H   4)          106.11 -0.000828    0.83    106.94   
    14. A(C   2,C   0,H   4)          109.07  0.003233   -1.40    107.66   
    15. A(C   1,C   0,C   2)          107.79 -0.003876    1.07    108.86   
    16. A(C   1,C   0,C   3)          113.00  0.003465   -1.03    111.98   
    17. A(C   2,C   0,C   3)          113.96  0.000651   -0.42    113.54   
    18. A(C   3,C   0,H   4)          106.57 -0.002588    0.94    107.51   
    19. A(H   5,C   1,H   6)          107.11 -0.000646    4.85    111.96   
    20. A(C   0,C   1,H   6)          111.61 -0.011777    4.85    116.46   
    21. A(C   0,C   1,H   5)          112.57 -0.009687    4.23    116.79   
    22. A(H   7,C   2,H   9)          107.58  0.002053   -0.48    107.10   
    23. A(C   0,C   2,H   9)          112.49  0.002873   -0.60    111.89   
    24. A(H   7,C   2,H   8)          111.92  0.008003   -2.64    109.29   
    25. A(C   0,C   2,H   8)          108.63 -0.006900    1.93    110.55   
    26. A(H   8,C   2,H   9)          107.15  0.001456   -0.17    106.97   
    27. A(C   0,C   2,H   7)          109.11 -0.006945    1.87    110.98   
    28. A(H  11,C   3,H  12)          107.55  0.001117   -0.40    107.15   
    29. A(H  10,C   3,H  12)          107.72 -0.001422   -0.24    107.48   
    30. A(C   0,C   3,H  12)          113.71  0.003927   -1.42    112.29   
    31. A(H  10,C   3,H  11)          104.57 -0.001152    1.17    105.74   
    32. A(C   0,C   3,H  11)          110.07 -0.005251    1.80    111.87   
    33. A(C   0,C   3,H  10)          112.71  0.002384   -0.68    112.03   
    34. D(H   6,C   1,C   0,C   3)   -169.61 -0.006780    3.79   -165.81   
    35. D(H   6,C   1,C   0,H   4)    -53.17 -0.008574    4.92    -48.25   
    36. D(H   6,C   1,C   0,C   2)     63.56 -0.007131    4.24     67.80   
    37. D(H   5,C   1,C   0,H   4)   -173.65  0.007506   -5.63   -179.28   
    38. D(H   5,C   1,C   0,C   2)    -56.93  0.008949   -6.31    -63.23   
    39. D(H   5,C   1,C   0,C   3)     69.91  0.009300   -6.75     63.16   
    40. D(H   7,C   2,C   0,C   1)   -122.17  0.002016   -1.74   -123.91   
    41. D(H   9,C   2,C   0,C   1)     -2.87  0.001749   -1.46     -4.34   
    42. D(H   8,C   2,C   0,H   4)   -129.64 -0.000571    0.08   -129.56   
    43. D(H   8,C   2,C   0,C   1)    115.57  0.000793   -0.78    114.79   
    44. D(H   7,C   2,C   0,H   4)     -7.38  0.000652   -0.88     -8.26   
[...]

             **** THE GBW FILE WAS UPDATED (orca4.gbw) ****
             **** DENSITY FILE WAS UPDATED (orca4.scfp) ****
             **** ENERGY FILE WAS UPDATED (orca4.en.tmp) ****
             **** THE GBW FILE WAS UPDATED (orca4.gbw) ****
             **** DENSITY FILE WAS UPDATED (orca4.scfp) ****
----------------
ORBITAL ENERGIES
----------------
                 SPIN UP ORBITALS
  NO   OCC          E(Eh)            E(eV) 
   0   1.0000     -10.187572      -277.2179 
   1   1.0000     -10.179747      -277.0050 
   2   1.0000     -10.169932      -276.7379 
   3   1.0000     -10.167627      -276.6752 
   4   1.0000      -0.793150       -21.5827 
   5   1.0000      -0.671120       -18.2621 
   6   1.0000      -0.661194       -17.9920 
   7   1.0000      -0.549750       -14.9594 
   8   1.0000      -0.461597       -12.5607 
   9   1.0000      -0.432244       -11.7620 
  10   1.0000      -0.421956       -11.4820 
  11   1.0000      -0.386534       -10.5181 
  12   1.0000      -0.377206       -10.2643 
  13   1.0000      -0.344751        -9.3811 
  14   1.0000      -0.339151        -9.2288 
  15   1.0000      -0.327902        -8.9227 
  16   1.0000      -0.201852        -5.4927 
  17   0.0000       0.059048         1.6068 
  18   0.0000       0.098295         2.6748 
  19   0.0000       0.105778         2.8784 
  20   0.0000       0.113152         3.0790 
  21   0.0000       0.122454         3.3321 
  22   0.0000       0.140947         3.8354 
  23   0.0000       0.145275         3.9531 
  24   0.0000       0.164716         4.4821 
  25   0.0000       0.175369         4.7720 
  26   0.0000       0.208881         5.6840 
  27   0.0000       0.245485         6.6800 
  28   0.0000       0.259582         7.0636 
  29   0.0000       0.397982        10.8296 
  30   0.0000       0.420266        11.4360 
  31   0.0000       0.426544        11.6069 
  32   0.0000       0.446864        12.1598 
  33   0.0000       0.475867        12.9490 
  34   0.0000       0.500254        13.6126 
  35   0.0000       0.575058        15.6481 
  36   0.0000       0.604263        16.4428 
  37   0.0000       0.641422        17.4540 
  38   0.0000       0.661115        17.9899 
  39   0.0000       0.663749        18.0615 
  40   0.0000       0.664763        18.0891 
  41   0.0000       0.694858        18.9081 
  42   0.0000       0.701704        19.0943 
  43   0.0000       0.706093        19.2138 
  44   0.0000       0.709941        19.3185 
  45   0.0000       0.722022        19.6472 
  46   0.0000       0.725464        19.7409 
  47   0.0000       0.737860        20.0782 
  48   0.0000       0.752784        20.4843 
  49   0.0000       0.756131        20.5754 
  50   0.0000       0.853935        23.2368 
  51   0.0000       0.935949        25.4685 
  52   0.0000       1.039462        28.2852 
  53   0.0000       1.089101        29.6359 
  54   0.0000       1.398465        38.0542 
  55   0.0000       1.521133        41.3921 
  56   0.0000       1.672328        45.5064 
  57   0.0000       1.742255        47.4092 
  58   0.0000       1.754068        47.7306 
  59   0.0000       1.817855        49.4663 
  60   0.0000       1.908410        51.9305 
  61   0.0000       1.935106        52.6569 
  62   0.0000       1.979345        53.8607 
  63   0.0000       2.017033        54.8863 
  64   0.0000       2.046687        55.6932 
  65   0.0000       2.077855        56.5413 
  66   0.0000       2.139570        58.2207 
  67   0.0000       2.146640        58.4131 
  68   0.0000       2.175936        59.2102 
  69   0.0000       2.422795        65.9276 
  70   0.0000       2.431798        66.1726 
  71   0.0000       2.498374        67.9842 
  72   0.0000       2.670628        72.6715 
  73   0.0000       2.681645        72.9713 

                 SPIN DOWN ORBITALS
  NO   OCC          E(Eh)            E(eV) 
   0   1.0000     -10.188487      -277.2428 
   1   1.0000     -10.168463      -276.6979 
   2   1.0000     -10.167442      -276.6702 
   3   1.0000     -10.165121      -276.6070 
   4   1.0000      -0.785788       -21.3824 
   5   1.0000      -0.669392       -18.2151 
   6   1.0000      -0.637356       -17.3433 
   7   1.0000      -0.540997       -14.7213 
   8   1.0000      -0.456990       -12.4353 
   9   1.0000      -0.429476       -11.6866 
  10   1.0000      -0.415175       -11.2975 
  11   1.0000      -0.383799       -10.4437 
  12   1.0000      -0.373738       -10.1699 
  13   1.0000      -0.337858        -9.1936 
  14   1.0000      -0.334663        -9.1066 
  15   1.0000      -0.325549        -8.8586 
  16   0.0000      -0.045025        -1.2252 
  17   0.0000       0.060654         1.6505 
  18   0.0000       0.099828         2.7165 
  19   0.0000       0.111586         3.0364 
  20   0.0000       0.116871         3.1802 
  21   0.0000       0.125080         3.4036 
  22   0.0000       0.142232         3.8703 
  23   0.0000       0.147361         4.0099 
  24   0.0000       0.165916         4.5148 
  25   0.0000       0.177174         4.8211 
  26   0.0000       0.212336         5.7780 
  27   0.0000       0.247173         6.7259 
  28   0.0000       0.267800         7.2872 
  29   0.0000       0.400789        10.9060 
  30   0.0000       0.424447        11.5498 
  31   0.0000       0.433368        11.7925 
  32   0.0000       0.450938        12.2707 
  33   0.0000       0.483361        13.1529 
  34   0.0000       0.547240        14.8912 
  35   0.0000       0.594402        16.1745 
  36   0.0000       0.613948        16.7064 
  37   0.0000       0.646596        17.5948 
  38   0.0000       0.664832        18.0910 
  39   0.0000       0.666065        18.1245 
  40   0.0000       0.672730        18.3059 
  41   0.0000       0.697645        18.9839 
  42   0.0000       0.703500        19.1432 
  43   0.0000       0.709945        19.3186 
  44   0.0000       0.714312        19.4374 
  45   0.0000       0.724114        19.7042 
  46   0.0000       0.730037        19.8653 
  47   0.0000       0.743563        20.2334 
  48   0.0000       0.755353        20.5542 
  49   0.0000       0.763468        20.7750 
  50   0.0000       0.859889        23.3988 
  51   0.0000       0.941899        25.6304 
  52   0.0000       1.041342        28.3363 
  53   0.0000       1.092656        29.7327 
  54   0.0000       1.409184        38.3459 
  55   0.0000       1.526454        41.5369 
  56   0.0000       1.722659        46.8759 
  57   0.0000       1.745701        47.5030 
  58   0.0000       1.777996        48.3817 
  59   0.0000       1.832701        49.8703 
  60   0.0000       1.922882        52.3243 
  61   0.0000       1.939472        52.7757 
  62   0.0000       1.987866        54.0926 
  63   0.0000       2.047702        55.7208 
  64   0.0000       2.076826        56.5133 
  65   0.0000       2.091191        56.9042 
  66   0.0000       2.143204        58.3195 
  67   0.0000       2.147887        58.4470 
  68   0.0000       2.182886        59.3993 
  69   0.0000       2.426923        66.0399 
  70   0.0000       2.443578        66.4931 
  71   0.0000       2.503095        68.1127 
  72   0.0000       2.678220        72.8781 
  73   0.0000       2.685593        73.0787 

                    ********************************
                    * MULLIKEN POPULATION ANALYSIS *
                    ********************************

------------------------------------------
FOD BASED MULLIKEN REDUCED ORBITAL CHARGES
------------------------------------------
  0 C s       :    -0.000000  s :    -0.000000
      pz      :     0.000000  p :     0.000000
      px      :     0.000000
      py      :     0.000000
      dz2     :     0.000000  d :     0.000000
      dxz     :     0.000000
      dyz     :     0.000000
      dx2y2   :     0.000000
      dxy     :     0.000000
  1 C s       :    -0.000000  s :    -0.000000
      pz      :     0.000000  p :     0.000000
      px      :     0.000000
      py      :     0.000000
      dz2     :     0.000000  d :     0.000000
      dxz     :     0.000000
      dyz     :     0.000000
      dx2y2   :     0.000000
      dxy     :     0.000000
  2 C s       :    -0.000000  s :    -0.000000
      pz      :     0.000000  p :     0.000000
      px      :     0.000000
      py      :     0.000000
      dz2     :     0.000000  d :     0.000000
      dxz     :     0.000000
      dyz     :     0.000000
      dx2y2   :     0.000000
      dxy     :     0.000000
  3 C s       :    -0.000000  s :    -0.000000
      pz      :     0.000000  p :     0.000000
      px      :     0.000000
      py      :     0.000000
      dz2     :     0.000000  d :     0.000000
      dxz     :     0.000000
      dyz     :     0.000000
      dx2y2   :     0.000000
      dxy     :     0.000000
  4 H s       :     0.000000  s :     0.000000
  5 H s       :     0.000000  s :     0.000000
  6 H s       :     0.000000  s :     0.000000
  7 H s       :     0.000000  s :     0.000000
  8 H s       :     0.000000  s :     0.000000
  9 H s       :     0.000000  s :     0.000000
 10 H s       :     0.000000  s :     0.000000
 11 H s       :     0.000000  s :     0.000000
 12 H s       :     0.000000  s :     0.000000


                     *******************************
                     * LOEWDIN POPULATION ANALYSIS *
                     *******************************

-------------------------------------------
LOEWDIN ATOMIC CHARGES AND SPIN POPULATIONS
-------------------------------------------
   0 C :   -0.160812   -0.012769
   1 C :   -0.221301    0.978297
   2 C :   -0.306474    0.049377
   3 C :   -0.308084    0.007338
   4 H :    0.113957    0.020686
   5 H :    0.113050   -0.026046
   6 H :    0.111559   -0.025753
   7 H :    0.108622    0.008336
   8 H :    0.109154    0.000211
   9 H :    0.110118    0.000034
  10 H :    0.109425   -0.000081
  11 H :    0.109280   -0.000173
  12 H :    0.111508    0.000542

----------------------------------------------------
LOEWDIN REDUCED ORBITAL CHARGES AND SPIN POPULATIONS
----------------------------------------------------
CHARGE
  0 C s       :     2.876584  s :     2.876584
      pz      :     1.072211  p :     3.172945
      px      :     1.042825
      py      :     1.057909
      dz2     :     0.030264  d :     0.111283
      dxz     :     0.012590
      dyz     :     0.014483
      dx2y2   :     0.026201
      dxy     :     0.027745
  1 C s       :     3.017810  s :     3.017810
      pz      :     1.072850  p :     3.146577
      px      :     1.016201
      py      :     1.057527
      dz2     :     0.014312  d :     0.056914
      dxz     :     0.005486
      dyz     :     0.016542
      dx2y2   :     0.008923
      dxy     :     0.011650
  2 C s       :     2.963617  s :     2.963617
      pz      :     1.114866  p :     3.270414
      px      :     1.061994
      py      :     1.093553
      dz2     :     0.018585  d :     0.072444
      dxz     :     0.011963
      dyz     :     0.009776
      dx2y2   :     0.016849
      dxy     :     0.015270
  3 C s       :     2.956486  s :     2.956486
      pz      :     1.105520  p :     3.278782
      px      :     1.082960
      py      :     1.090302
      dz2     :     0.023964  d :     0.072817
      dxz     :     0.006578
      dyz     :     0.009106
      dx2y2   :     0.020025
      dxy     :     0.013144
  4 H s       :     0.886043  s :     0.886043
  5 H s       :     0.886950  s :     0.886950
  6 H s       :     0.888441  s :     0.888441
  7 H s       :     0.891378  s :     0.891378
  8 H s       :     0.890846  s :     0.890846
  9 H s       :     0.889882  s :     0.889882
 10 H s       :     0.890575  s :     0.890575
 11 H s       :     0.890720  s :     0.890720
 12 H s       :     0.888492  s :     0.888492

SPIN
  0 C s       :    -0.005138  s :    -0.005138
      pz      :    -0.006164  p :    -0.024183
      px      :    -0.003010
      py      :    -0.015010
      dz2     :     0.003828  d :     0.016552
      dxz     :     0.000399
      dyz     :     0.001673
      dx2y2   :     0.000678
      dxy     :     0.009974
  1 C s       :     0.040347  s :     0.040347
      pz      :     0.191151  p :     0.941800
      px      :     0.692452
      py      :     0.058197
      dz2     :    -0.000629  d :    -0.003850
      dxz     :    -0.001389
      dyz     :    -0.000455
      dx2y2   :    -0.001210
      dxy     :    -0.000166
  2 C s       :     0.016570  s :     0.016570
      pz      :     0.001765  p :     0.032353
      px      :     0.022043
      py      :     0.008544
      dz2     :    -0.000058  d :     0.000454
      dxz     :    -0.000139
      dyz     :     0.000308
      dx2y2   :     0.000425
      dxy     :    -0.000081
  3 C s       :     0.001434  s :     0.001434
      pz      :     0.002204  p :     0.006084
      px      :     0.000515
      py      :     0.003364
      dz2     :     0.000150  d :    -0.000179
      dxz     :    -0.000036
      dyz     :    -0.000031
      dx2y2   :    -0.000237
      dxy     :    -0.000025
  4 H s       :     0.020686  s :     0.020686
  5 H s       :    -0.026046  s :    -0.026046
  6 H s       :    -0.025753  s :    -0.025753
  7 H s       :     0.008336  s :     0.008336
  8 H s       :     0.000211  s :     0.000211
  9 H s       :     0.000034  s :     0.000034
 10 H s       :    -0.000081  s :    -0.000081
 11 H s       :    -0.000173  s :    -0.000173
 12 H s       :     0.000542  s :     0.000542


                      *****************************
                      * MAYER POPULATION ANALYSIS *
                      *****************************

  NA   - Mulliken gross atomic population
  ZA   - Total nuclear charge
  QA   - Mulliken gross atomic charge
  VA   - Mayer's total valence
  BVA  - Mayer's bonded valence
  FA   - Mayer's free valence

  ATOM       NA         ZA         QA         VA         BVA        FA
  0 C      6.1024     6.0000    -0.1024     4.1951     4.1920     0.0032
  1 C      6.2346     6.0000    -0.2346     3.8893     2.9975     0.8918
  2 C      6.2280     6.0000    -0.2280     3.9361     3.9343     0.0019
  3 C      6.2402     6.0000    -0.2402     3.9567     3.9567     0.0000
  4 H      0.9270     1.0000     0.0730     0.9372     0.9367     0.0006
  5 H      0.9002     1.0000     0.0998     0.9559     0.9531     0.0028
  6 H      0.8990     1.0000     0.1010     0.9497     0.9469     0.0028
  7 H      0.9139     1.0000     0.0861     0.9578     0.9575     0.0002
  8 H      0.9140     1.0000     0.0860     0.9646     0.9646     0.0000
  9 H      0.9102     1.0000     0.0898     0.9584     0.9584     0.0000
 10 H      0.9134     1.0000     0.0866     0.9578     0.9578     0.0000
 11 H      0.9119     1.0000     0.0881     0.9612     0.9612     0.0000
 12 H      0.9053     1.0000     0.0947     0.9548     0.9548     0.0000

  Mayer bond orders larger than 0.100000
B(  0-C ,  1-C ) :   1.0811 B(  0-C ,  2-C ) :   1.0758 B(  0-C ,  3-C ) :   1.0923 
B(  0-C ,  4-H ) :   0.9119 B(  1-C ,  5-H ) :   0.9417 B(  1-C ,  6-H ) :   0.9406 
B(  2-C ,  7-H ) :   0.9530 B(  2-C ,  8-H ) :   0.9582 B(  2-C ,  9-H ) :   0.9590 
B(  3-C , 10-H ) :   0.9579 B(  3-C , 11-H ) :   0.9564 B(  3-C , 12-H ) :   0.9604 


-------
TIMINGS
-------

Total SCF time: 0 days 0 hours 2 min 0 sec 

Total time                  ....     120.019 sec
Sum of individual times     ....      95.842 sec  ( 79.9%)

Fock matrix formation       ....      84.859 sec  ( 70.7%)
  XC integration            ....      42.229 sec  ( 49.8% of F)
    Basis function eval.    ....       0.541 sec  (  1.3% of XC)
    Density eval.           ....       0.370 sec  (  0.9% of XC)
    XC-Functional eval.     ....       0.232 sec  (  0.5% of XC)
    XC-Potential eval.      ....       0.532 sec  (  1.3% of XC)
Diagonalization             ....       0.271 sec  (  0.2%)
Density matrix formation    ....       4.878 sec  (  4.1%)
Population analysis         ....       1.635 sec  (  1.4%)
Initial guess               ....       0.003 sec  (  0.0%)
Orbital Transformation      ....       0.000 sec  (  0.0%)
Orbital Orthonormalization  ....       0.002 sec  (  0.0%)
DIIS solution               ....       3.257 sec  (  2.7%)
Grid generation             ....       0.937 sec  (  0.8%)


-------------------------------------------------------------------------------
                          DFT DISPERSION CORRECTION                            
                                                                               
                              DFTD3 V3.1  Rev 1                                
                          USING Becke-Johnson damping                          
-------------------------------------------------------------------------------
The B3LYP functional is recognized
Active option DFTDOPT                   ...         4   

molecular C6(AA) [au] = 1132.639189 


            DFT-D V3
 parameters
 s6 scaling factor         :     1.0000 
 a1 scaling factor         :     0.3981 
 s8 scaling factor         :     1.9889 
 a2 scaling factor         :     4.4211 
 ad hoc parameters k1-k3   :    16.0000     1.3333    -4.0000 

 Edisp/kcal,au: -9.028925522718  -0.014388507159 
 E6   /kcal   :  -4.469094277 
 E8   /kcal   :  -4.559831245 
 % E8         :  50.502479325 

-------------------------   ----------------
Dispersion correction           -0.014388507
-------------------------   ----------------


-------------------------   --------------------
FINAL SINGLE POINT ENERGY      -157.545033269242
-------------------------   --------------------

                                *** OPTIMIZATION RUN DONE ***

                            ***************************************
                            *     ORCA property calculations      *
                            ***************************************

                                    ---------------------
                                    Active property flags
                                    ---------------------
   (+) Dipole Moment


------------------------------------------------------------------------------
                       ORCA ELECTRIC PROPERTIES CALCULATION
------------------------------------------------------------------------------

Dipole Moment Calculation                       ... on
Quadrupole Moment Calculation                   ... off
Polarizability Calculation                      ... off
GBWName                                         ... orca4.gbw
Electron density file                           ... orca4.scfp
The origin for moment calculation is the CENTER OF MASS  = (-0.130486, -0.084109  0.217085)

-------------
DIPOLE MOMENT
-------------
                                X             Y             Z
Electronic contribution:      0.27435       1.18373       0.46062
Nuclear contribution   :     -0.32456      -1.25542      -0.42474
                        -----------------------------------------
Total Dipole Moment    :     -0.05021      -0.07169       0.03589
                        -----------------------------------------
Magnitude (a.u.)       :      0.09460
Magnitude (Debye)      :      0.24045



--------------------
Rotational spectrum 
--------------------
 
Rotational constants in cm-1:     0.274803     0.261747     0.154881 
Rotational constants in MHz :  8238.386214  7846.978109  4643.201455 

 Dipole components along the rotational axes: 
x,y,z [a.u.] :    -0.036305     0.084248     0.023081 
x,y,z [Debye]:    -0.092280     0.214141     0.058667 

 

Timings for individual modules:

Sum of individual times         ...     8798.033 sec (= 146.634 min)
GTO integral calculation        ...      208.208 sec (=   3.470 min)   2.4 %
SCF iterations                  ...     8353.021 sec (= 139.217 min)  94.9 %
SCF Gradient evaluation         ...      140.721 sec (=   2.345 min)   1.6 %
Geometry relaxation             ...       96.082 sec (=   1.601 min)   1.1 %
                             ****ORCA TERMINATED NORMALLY****
TOTAL RUN TIME: 0 days 2 hours 33 minutes 6 seconds 191 msec
