
                                 *****************
                                 * O   R   C   A *
                                 *****************

           --- An Ab Initio, DFT and Semiempirical electronic structure package ---

                  #######################################################
                  #                        -***-                        #
                  #          Department of theory and spectroscopy      #
                  #               Directorship: Frank Neese             #
                  #        Max Planck Institute fuer Kohlenforschung    #
                  #                Kaiser Wilhelm Platz 1               #
                  #                 D-45470 Muelheim/Ruhr               #
                  #                      Germany                        #
                  #                                                     #
                  #                  All rights reserved                #
                  #                        -***-                        #
                  #######################################################


                         Program Version 4.2.1 -  RELEASE  -


 With contributions from (in alphabetic order):
   Daniel Aravena         : Magnetic Suceptibility
   Michael Atanasov       : Ab Initio Ligand Field Theory (pilot matlab implementation)
   Alexander A. Auer      : GIAO ZORA, VPT2
   Ute Becker             : Parallelization
   Giovanni Bistoni       : ED, misc. LED, open-shell LED, HFLD
   Martin Brehm           : Molecular dynamics
   Dmytro Bykov           : SCF Hessian
   Vijay G. Chilkuri      : MRCI spin determinant printing, contributions to CSF-ICE
   Dipayan Datta          : RHF DLPNO-CCSD density
   Achintya Kumar Dutta   : EOM-CC, STEOM-CC
   Dmitry Ganyushin       : Spin-Orbit,Spin-Spin,Magnetic field MRCI
   Miquel Garcia          : C-PCM Hessian, Gaussian charge scheme
   Yang Guo               : DLPNO-NEVPT2, CIM, IAO-localization
   Andreas Hansen         : Spin unrestricted coupled pair/coupled cluster methods
   Benjamin Helmich-Paris : CASSCF linear response (MC-RPA)
   Lee Huntington         : MR-EOM, pCC
   Robert Izsak           : Overlap fitted RIJCOSX, COSX-SCS-MP3, EOM
   Christian Kollmar      : KDIIS, OOCD, Brueckner-CCSD(T), CCSD density
   Simone Kossmann        : Meta GGA functionals, TD-DFT gradient, OOMP2, MP2 Hessian
   Martin Krupicka        : AUTO-CI
   Lucas Lang             : DCDCAS
   Dagmar Lenk            : GEPOL surface, SMD
   Dimitrios Liakos       : Extrapolation schemes; Compound Job, initial MDCI parallelization
   Dimitrios Manganas     : Further ROCIS development; embedding schemes
   Dimitrios Pantazis     : SARC Basis sets
   Taras Petrenko         : DFT Hessian,TD-DFT gradient, ASA, ECA, R-Raman, ABS, FL, XAS/XES, NRVS
   Peter Pinski           : DLPNO-MP2, DLPNO-MP2 Gradient
   Christoph Reimann      : Effective Core Potentials
   Marius Retegan         : Local ZFS, SOC
   Christoph Riplinger    : Optimizer, TS searches, QM/MM, DLPNO-CCSD(T), (RO)-DLPNO pert. Triples
   Tobias Risthaus        : Range-separated hybrids, TD-DFT gradient, RPA, STAB
   Michael Roemelt        : Original ROCIS implementation
   Masaaki Saitow         : Open-shell DLPNO-CCSD energy and density
   Barbara Sandhoefer     : DKH picture change effects
   Avijit Sen             : IP-ROCIS
   Kantharuban Sivalingam : CASSCF convergence, NEVPT2, FIC-MRCI
   Bernardo de Souza      : ESD, SOC TD-DFT
   Georgi Stoychev        : AutoAux, RI-MP2 NMR
   Willem Van den Heuvel  : Paramagnetic NMR
   Boris Wezisla          : Elementary symmetry handling
   Frank Wennmohs         : Technical directorship


 We gratefully acknowledge several colleagues who have allowed us to
 interface, adapt or use parts of their codes:
   Stefan Grimme, W. Hujo, H. Kruse,             : VdW corrections, initial TS optimization,
                  C. Bannwarth                     DFT functionals, gCP, sTDA/sTD-DF
   Ed Valeev, F. Pavosevic, A. Kumar             : LibInt (2-el integral package), F12 methods
   Garnet Chan, S. Sharma, J. Yang, R. Olivares  : DMRG
   Ulf Ekstrom                                   : XCFun DFT Library
   Mihaly Kallay                                 : mrcc  (arbitrary order and MRCC methods)
   Andreas Klamt, Michael Diedenhofen            : otool_cosmo (COSMO solvation model)
   Jiri Pittner, Ondrej Demel                    : Mk-CCSD
   Frank Weinhold                                : gennbo (NPA and NBO analysis)
   Christopher J. Cramer and Donald G. Truhlar   : smd solvation model
   Lars Goerigk                                  : TD-DFT with DH, B97 family of functionals
   V. Asgeirsson, H. Jonsson                     : NEB implementation
   FAccTs GmbH                                   : IRC, NEB, NEB-TS, Multilevel, MM, QM/MM, CI optimization
   S Lehtola, MJT Oliveira, MAL Marques          : LibXC Library


 Your calculation uses the libint2 library for the computation of 2-el integrals
 For citations please refer to: http://libint.valeyev.net

 Your ORCA version has been built with support for libXC version: 4.2.3
 For citations please refer to: https://tddft.org/programs/libxc/

 This ORCA versions uses:
   CBLAS   interface :  Fast vector & matrix operations
   LAPACKE interface :  Fast linear algebra routines
   SCALAPACK package :  Parallel linear algebra routines


Your calculation utilizes the atom-pairwise dispersion correction
with the Becke-Johnson damping scheme (D3BJ)
Cite in your paper:
S.Grimme, S.Ehrlich, L.Goerigk, J Comput Chem, (2011), 32, 1456–1465 
S.Grimme, J.Antony, S.Ehrlich and H.Krieg, J.Chem.Phys., 132, (2010), 154104 
   

----- Orbital basis set information -----
Your calculation utilizes the basis: def2-SV(P)
   F. Weigend and R. Ahlrichs, Phys. Chem. Chem. Phys. 7, 3297 (2005).

----- AuxJ basis set information -----
Your calculation utilizes the auxiliary basis: def2/J
   F. Weigend, Phys. Chem. Chem. Phys. 8, 1057 (2006).

================================================================================
                                        WARNINGS
                       Please study these warnings very carefully!
================================================================================


WARNING: Geometry Optimization
  ===> : Switching off AutoStart
         For restart on a previous wavefunction, please use MOREAD

INFO   : the flag for use of LIBINT has been found!

================================================================================
                                       INPUT FILE
================================================================================
NAME = orca6.inp
|  1> ! UKS B3LYP def2-SV(P) def2/J D3BJ Opt
|  2> %scf Convergence VeryTight
|  3> SmearTemp 2000
|  4> maxiter 500
|  5> end
|  6> *xyz 0 2
|  7> C 0.065938 -0.016435 -0.305895
|  8> C -1.209786 -0.820465 -0.109793
|  9> C 1.250622 -0.635312 0.370333
| 10> C -0.123539 1.43293 0.046074
| 11> H 0.269424 -0.055465 -1.40549
| 12> H -2.02012 -0.216218 -0.592406
| 13> H -1.157502 -1.762487 -0.712309
| 14> H 1.417615 -1.64138 -0.061949
| 15> H 2.143556 -0.033596 0.06474
| 16> H 1.216795 -0.612873 1.467722
| 17> H -0.950459 1.821362 -0.575084
| 18> H 0.806183 1.962775 -0.282903
| 19> H -0.28748 1.591521 1.138588
| 20> *
| 21> 
| 22>                          ****END OF INPUT****
================================================================================

                       *****************************
                       * Geometry Optimization Run *
                       *****************************

Geometry optimization settings:
Update method            Update   .... BFGS
Choice of coordinates    CoordSys .... Z-matrix Internals
Initial Hessian          InHess   .... Almoef's Model

Convergence Tolerances:
Energy Change            TolE     ....  5.0000e-06 Eh
Max. Gradient            TolMAXG  ....  3.0000e-04 Eh/bohr
RMS Gradient             TolRMSG  ....  1.0000e-04 Eh/bohr
Max. Displacement        TolMAXD  ....  4.0000e-03 bohr
RMS Displacement         TolRMSD  ....  2.0000e-03 bohr
Strict Convergence                ....  False
------------------------------------------------------------------------------
                        ORCA OPTIMIZATION COORDINATE SETUP
------------------------------------------------------------------------------

The optimization will be done in new redundant internal coordinates
Making redundant internal coordinates   ...  (new redundants) done
Evaluating the initial hessian          ...  (Almloef) done
Evaluating the coordinates              ...  done
Calculating the B-matrix                .... done
Calculating the G-matrix                .... done
Diagonalizing the G-matrix              .... done
The first mode is                       ....   24
The number of degrees of freedom        ....   33

    -----------------------------------------------------------------
                    Redundant Internal Coordinates


    -----------------------------------------------------------------
         Definition                    Initial Value    Approx d2E/dq
    -----------------------------------------------------------------
      1. B(C   1,C   0)                  1.5207         0.386622   
      2. B(C   2,C   0)                  1.4979         0.420297   
      3. B(C   3,C   0)                  1.5035         0.411807   
      4. B(H   4,C   0)                  1.1189         0.323774   
      5. B(H   5,C   1)                  1.1201         0.322379   
      6. B(H   6,C   1)                  1.1194         0.323177   
      7. B(H   7,C   2)                  1.1077         0.337470   
      8. B(H   8,C   2)                  1.1193         0.323381   
      9. B(H   9,C   2)                  1.0981         0.349492   
     10. B(H  10,C   3)                  1.1048         0.341084   
     11. B(H  11,C   3)                  1.1195         0.323081   
     12. B(H  12,C   3)                  1.1161         0.327211   
     13. A(C   1,C   0,H   4)          105.1205         0.320515   
     14. A(C   2,C   0,H   4)          106.5827         0.324933   
     15. A(C   1,C   0,C   2)          112.7572         0.372965   
     16. A(C   1,C   0,C   3)          111.9497         0.371657   
     17. A(C   2,C   0,C   3)          113.0961         0.377051   
     18. A(C   3,C   0,H   4)          106.6545         0.323845   
     19. A(H   5,C   1,H   6)          104.8232         0.281086   
     20. A(C   0,C   1,H   6)          109.6544         0.320418   
     21. A(C   0,C   1,H   5)          105.4336         0.320289   
     22. A(H   7,C   2,H   9)          114.4060         0.286554   
     23. A(C   0,C   2,H   9)          114.7293         0.329050   
     24. A(H   7,C   2,H   8)          105.1565         0.283113   
     25. A(C   0,C   2,H   8)          106.5937         0.324868   
     26. A(H   8,C   2,H   9)          106.6444         0.284657   
     27. A(C   0,C   2,H   7)          108.5609         0.327155   
     28. A(H  11,C   3,H  12)          110.0223         0.281721   
     29. A(H  10,C   3,H  12)          112.9841         0.284101   
     30. A(C   0,C   3,H  12)          112.6225         0.324407   
     31. A(H  10,C   3,H  11)          106.8566         0.283540   
     32. A(C   0,C   3,H  11)          106.4268         0.323731   
     33. A(C   0,C   3,H  10)          107.5565         0.326630   
     34. D(H   6,C   1,C   0,C   3)    159.3549         0.011131   
     35. D(H   6,C   1,C   0,H   4)     43.9526         0.011131   
     36. D(H   6,C   1,C   0,C   2)    -71.7652         0.011131   
     37. D(H   5,C   1,C   0,H   4)    -68.4078         0.011131   
     38. D(H   5,C   1,C   0,C   2)    175.8745         0.011131   
     39. D(H   5,C   1,C   0,C   3)     46.9946         0.011131   
     40. D(H   7,C   2,C   0,C   1)     60.7935         0.013976   
     41. D(H   9,C   2,C   0,C   1)    -68.5915         0.013976   
     42. D(H   8,C   2,C   0,H   4)     58.7756         0.013976   
     43. D(H   8,C   2,C   0,C   1)    173.6141         0.013976   
     44. D(H   7,C   2,C   0,H   4)    -54.0450         0.013976   
     45. D(H   7,C   2,C   0,C   3)   -170.9226         0.013976   
     46. D(H   9,C   2,C   0,C   3)     59.6925         0.013976   
     47. D(H   9,C   2,C   0,H   4)    176.5700         0.013976   
     48. D(H   8,C   2,C   0,C   3)    -58.1019         0.013976   
     49. D(H  12,C   3,C   0,H   4)   -177.3492         0.013430   
     50. D(H  12,C   3,C   0,C   1)     68.1876         0.013430   
     51. D(H  11,C   3,C   0,H   4)    -56.7140         0.013430   
     52. D(H  11,C   3,C   0,C   2)     60.1212         0.013430   
     53. D(H  11,C   3,C   0,C   1)   -171.1772         0.013430   
     54. D(H  10,C   3,C   0,H   4)     57.5138         0.013430   
     55. D(H  12,C   3,C   0,C   2)    -60.5140         0.013430   
     56. D(H  10,C   3,C   0,C   2)    174.3490         0.013430   
     57. D(H  10,C   3,C   0,C   1)    -56.9494         0.013430   
    -----------------------------------------------------------------

Number of atoms                         .... 13
Number of degrees of freedom            .... 57

Time needed for optimization step       :     2.28 sec

         *************************************************************
         *                GEOMETRY OPTIMIZATION CYCLE   1            *
         *************************************************************
---------------------------------
CARTESIAN COORDINATES (ANGSTROEM)
---------------------------------
  C      0.065938   -0.016435   -0.305895
  C     -1.209786   -0.820465   -0.109793
  C      1.250622   -0.635312    0.370333
  C     -0.123539    1.432930    0.046074
  H      0.269424   -0.055465   -1.405490
  H     -2.020120   -0.216218   -0.592406
  H     -1.157502   -1.762487   -0.712309
  H      1.417615   -1.641380   -0.061949
  H      2.143556   -0.033596    0.064740
  H      1.216795   -0.612873    1.467722
  H     -0.950459    1.821362   -0.575084
  H      0.806183    1.962775   -0.282903
  H     -0.287480    1.591521    1.138588

----------------------------
CARTESIAN COORDINATES (A.U.)
----------------------------
  NO LB      ZA    FRAG     MASS         X           Y           Z
   0 C     6.0000    0    12.011    0.124605   -0.031058   -0.578058
   1 C     6.0000    0    12.011   -2.286164   -1.550454   -0.207479
   2 C     6.0000    0    12.011    2.363333   -1.200566    0.699828
   3 C     6.0000    0    12.011   -0.233455    2.707845    0.087067
   4 H     1.0000    0     1.008    0.509138   -0.104814   -2.655991
   5 H     1.0000    0     1.008   -3.817474   -0.408593   -1.119485
   6 H     1.0000    0     1.008   -2.187362   -3.330618   -1.346069
   7 H     1.0000    0     1.008    2.678904   -3.101759   -0.117067
   8 H     1.0000    0     1.008    4.050734   -0.063487    0.122341
   9 H     1.0000    0     1.008    2.299409   -1.158162    2.773593
  10 H     1.0000    0     1.008   -1.796107    3.441875   -1.086751
  11 H     1.0000    0     1.008    1.523465    3.709107   -0.534609
  12 H     1.0000    0     1.008   -0.543258    3.007539    2.151619

--------------------------------
INTERNAL COORDINATES (ANGSTROEM)
--------------------------------
 C      0   0   0     0.000000000000     0.00000000     0.00000000
 C      1   0   0     1.520655108655     0.00000000     0.00000000
 C      1   2   0     1.497921636458   112.75724640     0.00000000
 C      1   2   3     1.503476841762   111.94970912   231.12010518
 H      1   2   3     1.118945511239   105.12047993   115.71772717
 H      2   1   3     1.120120947190   105.43356814   175.87451700
 H      2   1   3     1.119448344229   109.65438475   288.23482976
 H      3   1   2     1.107667463726   108.56094960    60.79345095
 H      3   1   2     1.119276710497   106.59372280   173.61412120
 H      3   1   2     1.098139513892   114.72925944   291.40847764
 H      4   1   2     1.104768467141   107.55654931   303.05059426
 H      4   1   2     1.119528734708   106.42679578   188.82279227
 H      4   1   2     1.116071053723   112.62248189    68.18761224

---------------------------
INTERNAL COORDINATES (A.U.)
---------------------------
 C      0   0   0     0.000000000000     0.00000000     0.00000000
 C      1   0   0     2.873621699507     0.00000000     0.00000000
 C      1   2   0     2.830661662981   112.75724640     0.00000000
 C      1   2   3     2.841159479623   111.94970912   231.12010518
 H      1   2   3     2.114500575021   105.12047993   115.71772717
 H      2   1   3     2.116721827058   105.43356814   175.87451700
 H      2   1   3     2.115450791664   109.65438475   288.23482976
 H      3   1   2     2.093188153897   108.56094960    60.79345095
 H      3   1   2     2.115126450916   106.59372280   173.61412120
 H      3   1   2     2.075182938093   114.72925944   291.40847764
 H      4   1   2     2.087709844288   107.55654931   303.05059426
 H      4   1   2     2.115602707654   106.42679578   188.82279227
 H      4   1   2     2.109068637533   112.62248189    68.18761224

---------------------
BASIS SET INFORMATION
---------------------
There are 2 groups of distinct atoms

 Group   1 Type C   : 7s4p1d contracted to 3s2p1d pattern {511/31/1}
 Group   2 Type H   : 4s contracted to 2s pattern {31}

Atom   0C    basis set group =>   1
Atom   1C    basis set group =>   1
Atom   2C    basis set group =>   1
Atom   3C    basis set group =>   1
Atom   4H    basis set group =>   2
Atom   5H    basis set group =>   2
Atom   6H    basis set group =>   2
Atom   7H    basis set group =>   2
Atom   8H    basis set group =>   2
Atom   9H    basis set group =>   2
Atom  10H    basis set group =>   2
Atom  11H    basis set group =>   2
Atom  12H    basis set group =>   2
---------------------------------
AUXILIARY/J BASIS SET INFORMATION
---------------------------------
There are 2 groups of distinct atoms

 Group   1 Type C   : 12s5p4d2f1g contracted to 6s4p3d1f1g pattern {711111/2111/211/2/1}
 Group   2 Type H   : 5s2p1d contracted to 3s1p1d pattern {311/2/1}

Atom   0C    basis set group =>   1
Atom   1C    basis set group =>   1
Atom   2C    basis set group =>   1
Atom   3C    basis set group =>   1
Atom   4H    basis set group =>   2
Atom   5H    basis set group =>   2
Atom   6H    basis set group =>   2
Atom   7H    basis set group =>   2
Atom   8H    basis set group =>   2
Atom   9H    basis set group =>   2
Atom  10H    basis set group =>   2
Atom  11H    basis set group =>   2
Atom  12H    basis set group =>   2
------------------------------------------------------------------------------
                           ORCA GTO INTEGRAL CALCULATION
------------------------------------------------------------------------------

                         BASIS SET STATISTICS AND STARTUP INFO

 # of primitive gaussian shells          ...   84
 # of primitive gaussian functions       ...  132
 # of contracted shells                  ...   42
 # of contracted basis functions         ...   74
 Highest angular momentum                ...    2
 Maximum contraction depth               ...    5
 Integral package used                   ... LIBINT
 Integral threshhold            Thresh   ...  1.000e-12
 Primitive cut-off              TCut     ...  1.000e-14


------------------------------ INTEGRAL EVALUATION ----------------------------


 * One electron integrals 
 Pre-screening matrix                    ... done
 Shell pair data                         ... done (   0.000 sec)

-------------------------------------------------------------------------------
                                 ORCA SCF
-------------------------------------------------------------------------------

------------
SCF SETTINGS
------------
Hamiltonian:
 Density Functional     Method          .... DFT(GTOs)
 Exchange Functional    Exchange        .... B88
   X-Alpha parameter    XAlpha          ....  0.666667
   Becke's b parameter  XBeta           ....  0.004200
 Correlation Functional Correlation     .... LYP
 LDA part of GGA corr.  LDAOpt          .... VWN-5
 Gradients option       PostSCFGGA      .... off
 Hybrid DFT is turned on
   Fraction HF Exchange ScalHFX         ....  0.200000
   Scaling of DF-GGA-X  ScalDFX         ....  0.720000
   Scaling of DF-GGA-C  ScalDFC         ....  0.810000
   Scaling of DF-LDA-C  ScalLDAC        ....  1.000000
   Perturbative correction              ....  0.000000
   Density functional embedding theory  .... OFF
   NL short-range parameter             ....  4.800000


General Settings:
 Integral files         IntName         .... orca6
 Hartree-Fock type      HFTyp           .... UHF
 Total Charge           Charge          ....    0
 Multiplicity           Mult            ....    2
 Number of Electrons    NEL             ....   33
 Basis Dimension        Dim             ....   74
 Nuclear Repulsion      ENuc            ....    126.7519874759 Eh

Convergence Acceleration:
 DIIS                   CNVDIIS         .... on
   Start iteration      DIISMaxIt       ....    12
   Startup error        DIISStart       ....  0.200000
   # of expansion vecs  DIISMaxEq       ....     5
   Bias factor          DIISBfac        ....   1.050
   Max. coefficient     DIISMaxC        ....  10.000
 Newton-Raphson         CNVNR           .... off
 SOSCF                  CNVSOSCF        .... off
 Level Shifting         CNVShift        .... on
   Level shift para.    LevelShift      ....    0.2500
   Turn off err/grad.   ShiftErr        ....    0.0010
 Zerner damping         CNVZerner       .... off
 Static damping         CNVDamp         .... on
   Fraction old density DampFac         ....    0.7000
   Max. Damping (<1)    DampMax         ....    0.9800
   Min. Damping (>=0)   DampMin         ....    0.0000
   Turn off err/grad.   DampErr         ....    0.1000
 Fernandez-Rico         CNVRico         .... off

SCF Procedure:
 Maximum # iterations   MaxIter         ....   500
 SCF integral mode      SCFMode         .... Direct
   Integral package                     .... LIBINT
 Reset frequency        DirectResetFreq ....    20
 Integral Threshold     Thresh          ....  1.000e-12 Eh
 Primitive CutOff       TCut            ....  1.000e-14 Eh

Convergence Tolerance:
 Convergence Check Mode ConvCheckMode   .... Total+1el-Energy
 Convergence forced     ConvForced      .... 0
 Energy Change          TolE            ....  1.000e-09 Eh
 1-El. energy change                    ....  1.000e-06 Eh
 DIIS Error             TolErr          ....  1.000e-08


Diagonalization of the overlap matrix:
Smallest eigenvalue                        ... 2.087e-03
Time for diagonalization                   ...    0.001 sec
Threshold for overlap eigenvalues          ... 1.000e-08
Number of eigenvalues below threshold      ... 0
Time for construction of square roots      ...    0.585 sec
Total time needed                          ...    0.586 sec

-------------------
DFT GRID GENERATION
-------------------

General Integration Accuracy     IntAcc      ...  4.340
Radial Grid Type                 RadialGrid  ... Gauss-Chebyshev
Angular Grid (max. acc.)         AngularGrid ... Lebedev-110
Angular grid pruning method      GridPruning ... 3 (G Style)
Weight generation scheme         WeightScheme... Becke
Basis function cutoff            BFCut       ...    1.0000e-12
Integration weight cutoff        WCut        ...    1.0000e-14
Grids for H and He will be reduced by one unit

# of grid points (after initial pruning)     ...  13770 (   0.0 sec)
# of grid points (after weights+screening)   ...  12900 (   0.0 sec)
nearest neighbour list constructed           ...    0.0 sec
Grid point re-assignment to atoms done       ...    0.0 sec
Grid point division into batches done        ...    0.0 sec
Reduced shell lists constructed in    0.1 sec

Total number of grid points                  ...    12900
Total number of batches                      ...      208
Average number of points per batch           ...       62
Average number of grid points per atom       ...      992
Average number of shells per batch           ...    37.30 (88.81%)
Average number of basis functions per batch  ...    66.44 (89.78%)
Average number of large shells per batch     ...    32.81 (87.97%)
Average number of large basis fcns per batch ...    58.02 (87.33%)
Maximum spatial batch extension              ...  20.53, 21.66, 22.44 au
Average spatial batch extension              ...   4.11,  4.13,  3.94 au

Time for grid setup =    0.414 sec

------------------------------
INITIAL GUESS: MODEL POTENTIAL
------------------------------
Loading Hartree-Fock densities                     ... done
Calculating cut-offs                               ... done
Setting up the integral package                    ... done
Initializing the effective Hamiltonian             ... done
Starting the Coulomb interaction                   ... done (   0.0 sec)
Reading the grid                                   ... done
Mapping shells                                     ... done
Starting the XC term evaluation                    ... done (   0.1 sec)
  promolecular density results
     # of electrons  =     33.000824916
     EX              =    -23.183482059
     EC              =     -1.031550570
     EX+EC           =    -24.215032629
Transforming the Hamiltonian                       ... done (   0.0 sec)
Diagonalizing the Hamiltonian                      ... done (   0.0 sec)
Back transforming the eigenvectors                 ... done (   0.0 sec)
Now organizing SCF variables                       ... done
                      ------------------
                      INITIAL GUESS DONE (   0.6 sec)
                      ------------------
--------------
SCF ITERATIONS
--------------
ITER       Energy         Delta-E        Max-DP      RMS-DP      [F,P]     Damp
               ***  Starting incremental Fock matrix formation  ***
  0   -157.3584444371   0.000000000000 0.04299717  0.00207503  0.1705544 0.7000
  1   -157.4281638763  -0.069719439199 0.02646453  0.00149356  0.0880642 0.7000
                               ***Turning on DIIS***
  2   -157.4562341627  -0.028070286385 0.03662608  0.00249490  0.0323302 0.0000
  3   -157.4944880718  -0.038253909057 0.01776762  0.00102221  0.0485640 0.0000
  4   -157.5070092973  -0.012521225578 0.00567670  0.00031741  0.0096155 0.0000
  5   -157.5076565908  -0.000647293448 0.00172969  0.00011396  0.0024093 0.0000
  6   -157.5077098213  -0.000053230470 0.00123057  0.00007449  0.0006689 0.0000
  7   -157.5077212060  -0.000011384787 0.00046249  0.00001496  0.0002119 0.0000
  8   -157.5077223262  -0.000001120198 0.00015083  0.00000556  0.0000816 0.0000
  9   -157.5077224660  -0.000000139724 0.00006653  0.00000207  0.0000421 0.0000
 10   -157.5077224889  -0.000000022899 0.00002435  0.00000080  0.0000117 0.0000
 11   -157.5077224935  -0.000000004648 0.00001270  0.00000051  0.0000029 0.0000
 12   -157.5077224948  -0.000000001326 0.00000363  0.00000014  0.0000011 0.0000
 13   -157.5077224950  -0.000000000149 0.00000323  0.00000012  0.0000009 0.0000
 14   -157.5077224951  -0.000000000062 0.00000085  0.00000003  0.0000004 0.0000
 15   -157.5077224950   0.000000000006 0.00000070  0.00000003  0.0000001 0.0000
 16   -157.5077224950   0.000000000009 0.00000008  0.00000000  0.0000001 0.0000
                 **** Energy Check signals convergence ****

 Fermi smearing  (ALPHA): E(HOMO(Eh)) = -0.325143 MUE = -0.096115 gap=   7.776 eV
 Fermi smearing   (BETA): E(HOMO(Eh)) = -0.318030 MUE = -0.194997 gap=   6.645 eV

N_FOD(alpha) =  0.000000
 N_FOD(beta) =  0.000000
       N_FOD =  0.000000

               *****************************************************
               *                     SUCCESS                       *
               *           SCF CONVERGED AFTER  17 CYCLES          *
               *****************************************************

Setting up the final grid:

General Integration Accuracy     IntAcc      ...  4.670
Radial Grid Type                 RadialGrid  ... Gauss-Chebyshev
Angular Grid (max. acc.)         AngularGrid ... Lebedev-302
Angular grid pruning method      GridPruning ... 3 (G Style)
Weight generation scheme         WeightScheme... Becke
Basis function cutoff            BFCut       ...    1.0000e-12
Integration weight cutoff        WCut        ...    1.0000e-14
Grids for H and He will be reduced by one unit

# of grid points (after initial pruning)     ...  55394 (   0.0 sec)
# of grid points (after weights+screening)   ...  51233 (   0.1 sec)
nearest neighbour list constructed           ...    0.0 sec
Grid point re-assignment to atoms done       ...    0.0 sec
Grid point division into batches done        ...    0.2 sec
Reduced shell lists constructed in    0.3 sec

Total number of grid points                  ...    51233
Total number of batches                      ...      807
Average number of points per batch           ...       63
Average number of grid points per atom       ...     3941
Average number of shells per batch           ...    34.90 (83.09%)
Average number of basis functions per batch  ...    61.95 (83.72%)
Average number of large shells per batch     ...    29.97 (85.89%)
Average number of large basis fcns per batch ...    52.68 (85.04%)
Maximum spatial batch extension              ...  18.10, 19.44, 18.51 au
Average spatial batch extension              ...   2.67,  2.62,  2.61 au

Final grid set up in    1.4 sec
Final integration                            ... done (  11.2 sec)
Change in XC energy                          ...     0.000265032
Integrated number of electrons               ...    33.000041765
Previous integrated no of electrons          ...    33.001598327

----------------
TOTAL SCF ENERGY
----------------

Total Energy       :         -157.50745746 Eh           -4285.99581 eV

Components:
Nuclear Repulsion  :          126.75198748 Eh            3449.09693 eV
Electronic Energy  :         -284.25944494 Eh           -7735.09274 eV
One Electron Energy:         -461.00040017 Eh          -12544.45864 eV
Two Electron Energy:          176.74095523 Eh            4809.36590 eV

Virial components:
Potential Energy   :         -313.35319507 Eh           -8526.77393 eV
Kinetic Energy     :          155.84573761 Eh            4240.77812 eV
Virial Ratio       :            2.01066259


DFT components:
N(Alpha)           :       17.000013436182 electrons
N(Beta)            :       16.000028328516 electrons
N(Total)           :       33.000041764697 electrons
E(X)               :      -18.877653383298 Eh       
E(C)               :       -1.219862049961 Eh       
E(XC)              :      -20.097515433259 Eh       
DFET-embed. en.    :        0.000000000000 Eh       

---------------
SCF CONVERGENCE
---------------

  Last Energy change         ...   -4.4054e-12  Tolerance :   1.0000e-09
  Last MAX-Density change    ...    9.0030e-08  Tolerance :   1.0000e-08
  Last RMS-Density change    ...    3.7866e-09  Tolerance :   1.0000e-09
  Last DIIS Error            ...    2.8339e-08  Tolerance :   1.0000e-08

             **** THE GBW FILE WAS UPDATED (orca6.gbw) ****
             **** DENSITY FILE WAS UPDATED (orca6.scfp) ****
             **** ENERGY FILE WAS UPDATED (orca6.en.tmp) ****
             **** THE GBW FILE WAS UPDATED (orca6.gbw) ****
             **** DENSITY FILE WAS UPDATED (orca6.scfp) ****
----------------
ORBITAL ENERGIES
----------------
                 SPIN UP ORBITALS
  NO   OCC          E(Eh)            E(eV) 
   0   1.0000     -10.191372      -277.3213 
   1   1.0000     -10.185167      -277.1525 
   2   1.0000     -10.168749      -276.7057 
   3   1.0000     -10.166695      -276.6498 
   4   1.0000      -0.804148       -21.8820 
   5   1.0000      -0.675285       -18.3755 
   6   1.0000      -0.666474       -18.1357 
   7   1.0000      -0.538567       -14.6551 
   8   1.0000      -0.466065       -12.6823 
   9   1.0000      -0.433753       -11.8030 
  10   1.0000      -0.428605       -11.6629 
  11   1.0000      -0.388398       -10.5688 
  12   1.0000      -0.358538        -9.7563 
  13   1.0000      -0.348524        -9.4838 
  14   1.0000      -0.328371        -8.9354 
  15   1.0000      -0.325143        -8.8476 
  16   1.0000      -0.239003        -6.5036 
  17   0.0000       0.046772         1.2727 
  18   0.0000       0.096147         2.6163 
  19   0.0000       0.104493         2.8434 
  20   0.0000       0.111121         3.0238 
  21   0.0000       0.124014         3.3746 
  22   0.0000       0.132911         3.6167 
  23   0.0000       0.151027         4.1097 
  24   0.0000       0.164310         4.4711 
  25   0.0000       0.188025         5.1164 
  26   0.0000       0.216008         5.8779 
  27   0.0000       0.239645         6.5211 
  28   0.0000       0.251813         6.8522 
  29   0.0000       0.400970        10.9109 
  30   0.0000       0.410617        11.1735 
  31   0.0000       0.423511        11.5243 
  32   0.0000       0.444847        12.1049 
  33   0.0000       0.472956        12.8698 
  34   0.0000       0.530819        14.4443 
  35   0.0000       0.617175        16.7942 
  36   0.0000       0.619640        16.8613 
  37   0.0000       0.631194        17.1757 
  38   0.0000       0.644207        17.5298 
  39   0.0000       0.661350        17.9962 
  40   0.0000       0.667710        18.1693 
  41   0.0000       0.676818        18.4172 
  42   0.0000       0.685157        18.6441 
  43   0.0000       0.703776        19.1507 
  44   0.0000       0.705473        19.1969 
  45   0.0000       0.721463        19.6320 
  46   0.0000       0.737159        20.0591 
  47   0.0000       0.744730        20.2651 
  48   0.0000       0.750605        20.4250 
  49   0.0000       0.760234        20.6870 
  50   0.0000       0.794307        21.6142 
  51   0.0000       0.871025        23.7018 
  52   0.0000       1.065573        28.9957 
  53   0.0000       1.095721        29.8161 
  54   0.0000       1.405754        38.2525 
  55   0.0000       1.419013        38.6133 
  56   0.0000       1.739976        47.3472 
  57   0.0000       1.752590        47.6904 
  58   0.0000       1.766956        48.0813 
  59   0.0000       1.790211        48.7141 
  60   0.0000       1.923911        52.3523 
  61   0.0000       1.942852        52.8677 
  62   0.0000       1.999323        54.4043 
  63   0.0000       2.047651        55.7194 
  64   0.0000       2.057247        55.9805 
  65   0.0000       2.086454        56.7753 
  66   0.0000       2.122103        57.7454 
  67   0.0000       2.143037        58.3150 
  68   0.0000       2.155161        58.6449 
  69   0.0000       2.439832        66.3912 
  70   0.0000       2.452839        66.7452 
  71   0.0000       2.461273        66.9746 
  72   0.0000       2.694492        73.3208 
  73   0.0000       2.698277        73.4239 

                 SPIN DOWN ORBITALS
  NO   OCC          E(Eh)            E(eV) 
   0   1.0000     -10.185344      -277.1573 
   1   1.0000     -10.176043      -276.9042 
   2   1.0000     -10.168674      -276.7037 
   3   1.0000     -10.166374      -276.6411 
   4   1.0000      -0.798304       -21.7230 
   5   1.0000      -0.674498       -18.3540 
   6   1.0000      -0.647003       -17.6058 
   7   1.0000      -0.528500       -14.3812 
   8   1.0000      -0.460926       -12.5424 
   9   1.0000      -0.429225       -11.6798 
  10   1.0000      -0.425969       -11.5912 
  11   1.0000      -0.386667       -10.5217 
  12   1.0000      -0.353362        -9.6155 
  13   1.0000      -0.340957        -9.2779 
  14   1.0000      -0.325428        -8.8553 
  15   1.0000      -0.318030        -8.6540 
  16   0.0000      -0.073825        -2.0089 
  17   0.0000       0.049671         1.3516 
  18   0.0000       0.098670         2.6850 
  19   0.0000       0.107506         2.9254 
  20   0.0000       0.112639         3.0651 
  21   0.0000       0.127119         3.4591 
  22   0.0000       0.137186         3.7330 
  23   0.0000       0.152382         4.1465 
  24   0.0000       0.164464         4.4753 
  25   0.0000       0.191469         5.2101 
  26   0.0000       0.219119         5.9625 
  27   0.0000       0.250157         6.8071 
  28   0.0000       0.255067         6.9407 
  29   0.0000       0.404538        11.0080 
  30   0.0000       0.418095        11.3770 
  31   0.0000       0.429078        11.6758 
  32   0.0000       0.445799        12.1308 
  33   0.0000       0.510915        13.9027 
  34   0.0000       0.549675        14.9574 
  35   0.0000       0.625721        17.0267 
  36   0.0000       0.627201        17.0670 
  37   0.0000       0.642274        17.4772 
  38   0.0000       0.650884        17.7115 
  39   0.0000       0.662908        18.0386 
  40   0.0000       0.675363        18.3776 
  41   0.0000       0.680513        18.5177 
  42   0.0000       0.691255        18.8100 
  43   0.0000       0.706101        19.2140 
  44   0.0000       0.709172        19.2975 
  45   0.0000       0.721733        19.6393 
  46   0.0000       0.742772        20.2118 
  47   0.0000       0.748201        20.3596 
  48   0.0000       0.756517        20.5859 
  49   0.0000       0.766316        20.8525 
  50   0.0000       0.796775        21.6813 
  51   0.0000       0.880367        23.9560 
  52   0.0000       1.066485        29.0205 
  53   0.0000       1.100200        29.9380 
  54   0.0000       1.412943        38.4481 
  55   0.0000       1.429545        38.8999 
  56   0.0000       1.747294        47.5463 
  57   0.0000       1.762955        47.9724 
  58   0.0000       1.784588        48.5611 
  59   0.0000       1.846127        50.2357 
  60   0.0000       1.926607        52.4256 
  61   0.0000       1.946155        52.9576 
  62   0.0000       2.030779        55.2603 
  63   0.0000       2.061229        56.0889 
  64   0.0000       2.070482        56.3407 
  65   0.0000       2.096861        57.0585 
  66   0.0000       2.131215        57.9933 
  67   0.0000       2.147366        58.4328 
  68   0.0000       2.171499        59.0895 
  69   0.0000       2.448916        66.6384 
  70   0.0000       2.461320        66.9759 
  71   0.0000       2.467840        67.1534 
  72   0.0000       2.696024        73.3625 
  73   0.0000       2.708538        73.7031 

                    ********************************
                    * MULLIKEN POPULATION ANALYSIS *
                    ********************************

------------------------------------------
FOD BASED MULLIKEN REDUCED ORBITAL CHARGES
------------------------------------------
  0 C s       :     0.000000  s :     0.000000
      pz      :     0.000000  p :     0.000000
      px      :     0.000000
      py      :     0.000000
      dz2     :     0.000000  d :     0.000000
      dxz     :     0.000000
      dyz     :     0.000000
      dx2y2   :     0.000000
      dxy     :     0.000000
  1 C s       :     0.000000  s :     0.000000
      pz      :     0.000000  p :     0.000000
      px      :     0.000000
      py      :     0.000000
      dz2     :    -0.000000  d :     0.000000
      dxz     :     0.000000
      dyz     :     0.000000
      dx2y2   :     0.000000
      dxy     :     0.000000
  2 C s       :    -0.000000  s :    -0.000000
      pz      :     0.000000  p :     0.000000
      px      :     0.000000
      py      :     0.000000
      dz2     :     0.000000  d :     0.000000
      dxz     :     0.000000
      dyz     :     0.000000
      dx2y2   :     0.000000
      dxy     :     0.000000
  3 C s       :    -0.000000  s :    -0.000000
      pz      :     0.000000  p :     0.000000
      px      :     0.000000
      py      :     0.000000
      dz2     :     0.000000  d :     0.000000
      dxz     :     0.000000
      dyz     :     0.000000
      dx2y2   :     0.000000
      dxy     :     0.000000
  4 H s       :     0.000000  s :     0.000000
  5 H s       :     0.000000  s :     0.000000
  6 H s       :     0.000000  s :     0.000000
  7 H s       :     0.000000  s :     0.000000
  8 H s       :     0.000000  s :     0.000000
  9 H s       :     0.000000  s :     0.000000
 10 H s       :     0.000000  s :     0.000000
 11 H s       :     0.000000  s :     0.000000
 12 H s       :     0.000000  s :     0.000000


                     *******************************
                     * LOEWDIN POPULATION ANALYSIS *
                     *******************************

-------------------------------------------
LOEWDIN ATOMIC CHARGES AND SPIN POPULATIONS
-------------------------------------------
   0 C :   -0.177744    0.005842
   1 C :   -0.202262    0.950983
   2 C :   -0.305501    0.010220
   3 C :   -0.303960    0.003372
   4 H :    0.121234    0.048340
   5 H :    0.101842   -0.010457
   6 H :    0.103810   -0.009030
   7 H :    0.111503   -0.000284
   8 H :    0.105164   -0.000609
   9 H :    0.114490    0.001418
  10 H :    0.109990   -0.000393
  11 H :    0.107753   -0.000919
  12 H :    0.113681    0.001517

----------------------------------------------------
LOEWDIN REDUCED ORBITAL CHARGES AND SPIN POPULATIONS
----------------------------------------------------
CHARGE
  0 C s       :     2.871308  s :     2.871308
      pz      :     1.052362  p :     3.188463
      px      :     1.067791
      py      :     1.068310
      dz2     :     0.030955  d :     0.117974
      dxz     :     0.016229
      dyz     :     0.012354
      dx2y2   :     0.028782
      dxy     :     0.029654
  1 C s       :     3.064592  s :     3.064592
      pz      :     0.947645  p :     3.076496
      px      :     1.058853
      py      :     1.069997
      dz2     :     0.003948  d :     0.061173
      dxz     :     0.010077
      dyz     :     0.015426
      dx2y2   :     0.013646
      dxy     :     0.018076
  2 C s       :     2.949021  s :     2.949021
      pz      :     1.105454  p :     3.280111
      px      :     1.077196
      py      :     1.097461
      dz2     :     0.024460  d :     0.076369
      dxz     :     0.009966
      dyz     :     0.009178
      dx2y2   :     0.015589
      dxy     :     0.017175
  3 C s       :     2.954926  s :     2.954926
      pz      :     1.105561  p :     3.273836
      px      :     1.099942
      py      :     1.068333
      dz2     :     0.019628  d :     0.075198
      dxz     :     0.012098
      dyz     :     0.010961
      dx2y2   :     0.014674
      dxy     :     0.017836
  4 H s       :     0.878766  s :     0.878766
  5 H s       :     0.898158  s :     0.898158
  6 H s       :     0.896190  s :     0.896190
  7 H s       :     0.888497  s :     0.888497
  8 H s       :     0.894836  s :     0.894836
  9 H s       :     0.885510  s :     0.885510
 10 H s       :     0.890010  s :     0.890010
 11 H s       :     0.892247  s :     0.892247
 12 H s       :     0.886319  s :     0.886319

SPIN
  0 C s       :    -0.000735  s :    -0.000735
      pz      :     0.000540  p :    -0.004954
      px      :    -0.003817
      py      :    -0.001677
      dz2     :     0.003104  d :     0.011530
      dxz     :     0.006462
      dyz     :     0.001183
      dx2y2   :     0.000255
      dxy     :     0.000526
  1 C s       :     0.116234  s :     0.116234
      pz      :     0.736203  p :     0.838771
      px      :     0.055279
      py      :     0.047289
      dz2     :    -0.000642  d :    -0.004022
      dxz     :    -0.000759
      dyz     :    -0.001603
      dx2y2   :    -0.000127
      dxy     :    -0.000891
  2 C s       :     0.003773  s :     0.003773
      pz      :     0.000338  p :     0.006501
      px      :     0.004197
      py      :     0.001966
      dz2     :     0.000039  d :    -0.000054
      dxz     :    -0.000039
      dyz     :     0.000122
      dx2y2   :    -0.000184
      dxy     :     0.000008
  3 C s       :     0.000902  s :     0.000902
      pz      :     0.000309  p :     0.002425
      px      :     0.001126
      py      :     0.000991
      dz2     :     0.000103  d :     0.000045
      dxz     :     0.000166
      dyz     :    -0.000066
      dx2y2   :     0.000016
      dxy     :    -0.000175
  4 H s       :     0.048340  s :     0.048340
  5 H s       :    -0.010457  s :    -0.010457
  6 H s       :    -0.009030  s :    -0.009030
  7 H s       :    -0.000284  s :    -0.000284
  8 H s       :    -0.000609  s :    -0.000609
  9 H s       :     0.001418  s :     0.001418
 10 H s       :    -0.000393  s :    -0.000393
 11 H s       :    -0.000919  s :    -0.000919
 12 H s       :     0.001517  s :     0.001517


                      *****************************
                      * MAYER POPULATION ANALYSIS *
                      *****************************

  NA   - Mulliken gross atomic population
  ZA   - Total nuclear charge
  QA   - Mulliken gross atomic charge
  VA   - Mayer's total valence
  BVA  - Mayer's bonded valence
  FA   - Mayer's free valence

  ATOM       NA         ZA         QA         VA         BVA        FA
  0 C      6.1817     6.0000    -0.1817     4.2603     4.2580     0.0024
  1 C      6.1571     6.0000    -0.1571     3.8615     3.0135     0.8480
  2 C      6.2078     6.0000    -0.2078     3.9500     3.9499     0.0001
  3 C      6.2241     6.0000    -0.2241     3.9530     3.9530     0.0000
  4 H      0.9245     1.0000     0.0755     0.9343     0.9313     0.0030
  5 H      0.9202     1.0000     0.0798     0.9542     0.9531     0.0011
  6 H      0.9167     1.0000     0.0833     0.9506     0.9497     0.0009
  7 H      0.9142     1.0000     0.0858     0.9598     0.9598     0.0000
  8 H      0.9241     1.0000     0.0759     0.9588     0.9588     0.0000
  9 H      0.9017     1.0000     0.0983     0.9618     0.9618     0.0000
 10 H      0.9110     1.0000     0.0890     0.9605     0.9605     0.0000
 11 H      0.9161     1.0000     0.0839     0.9589     0.9589     0.0000
 12 H      0.9008     1.0000     0.0992     0.9613     0.9613     0.0000

  Mayer bond orders larger than 0.100000
B(  0-C ,  1-C ) :   1.1048 B(  0-C ,  2-C ) :   1.1093 B(  0-C ,  3-C ) :   1.1090 
B(  0-C ,  4-H ) :   0.8866 B(  1-C ,  5-H ) :   0.9434 B(  1-C ,  6-H ) :   0.9430 
B(  2-C ,  7-H ) :   0.9532 B(  2-C ,  8-H ) :   0.9551 B(  2-C ,  9-H ) :   0.9556 
B(  3-C , 10-H ) :   0.9521 B(  3-C , 11-H ) :   0.9543 B(  3-C , 12-H ) :   0.9566 


-------
TIMINGS
-------

Total SCF time: 0 days 0 hours 8 min 8 sec 

Total time                  ....     488.969 sec
Sum of individual times     ....     398.008 sec  ( 81.4%)

Fock matrix formation       ....     322.149 sec  ( 65.9%)
  XC integration            ....     156.516 sec  ( 48.6% of F)
    Basis function eval.    ....       0.841 sec  (  0.5% of XC)
    Density eval.           ....       0.594 sec  (  0.4% of XC)
    XC-Functional eval.     ....       0.364 sec  (  0.2% of XC)
    XC-Potential eval.      ....       0.899 sec  (  0.6% of XC)
Diagonalization             ....      14.192 sec  (  2.9%)
Density matrix formation    ....      33.543 sec  (  6.9%)
Population analysis         ....      14.114 sec  (  2.9%)
Initial guess               ....       0.228 sec  (  0.0%)
Orbital Transformation      ....       0.000 sec  (  0.0%)
Orbital Orthonormalization  ....       0.000 sec  (  0.0%)
DIIS solution               ....      12.002 sec  (  2.5%)
Grid generation             ....       1.781 sec  (  0.4%)


-------------------------------------------------------------------------------
                          DFT DISPERSION CORRECTION                            
                                                                               
                              DFTD3 V3.1  Rev 1                                
                          USING Becke-Johnson damping                          
-------------------------------------------------------------------------------
The B3LYP functional is recognized
Active option DFTDOPT                   ...         4   

molecular C6(AA) [au] = 1132.611366 


            DFT-D V3
 parameters
 s6 scaling factor         :     1.0000 
 a1 scaling factor         :     0.3981 
 s8 scaling factor         :     1.9889 
 a2 scaling factor         :     4.4211 
 ad hoc parameters k1-k3   :    16.0000     1.3333    -4.0000 

 Edisp/kcal,au: -9.129102686300  -0.014548149613 
 E6   /kcal   :  -4.525634503 
 E8   /kcal   :  -4.603468184 
 % E8         :  50.426294259 

-------------------------   ----------------
Dispersion correction           -0.014548150
-------------------------   ----------------


-------------------------   --------------------
FINAL SINGLE POINT ENERGY      -157.522005612885
-------------------------   --------------------

------------------------------------------------------------------------------
                         ORCA SCF GRADIENT CALCULATION
------------------------------------------------------------------------------

Gradient of the Kohn-Sham DFT energy:
Kohn-Sham wavefunction type      ... UKS
Hartree-Fock exchange scaling    ...    0.200
Number of operators              ...    2
Number of atoms                  ...   13
Basis set dimensions             ...   74
Integral neglect threshold       ... 1.0e-12
Integral primitive cutoff        ... 1.0e-14

Nuclear repulsion gradient       ... done
One Electron Gradient            ... done
Pre-screening matrix             ... done
Starting the two electron gradient:
Two electron gradient done
Exchange-correlation gradient    ... done
Dispersion correction            ... done

------------------
CARTESIAN GRADIENT
------------------

   1   C   :    0.016981662    0.013048295   -0.010388678
   2   C   :   -0.002750593   -0.011543665    0.058911255
   3   C   :   -0.030467281   -0.004471548    0.015795559
   4   C   :   -0.012965908   -0.013371633    0.005909781
   5   H   :    0.002486292    0.001243694   -0.002180873
   6   H   :    0.007324336    0.007171619   -0.019673497
   7   H   :    0.002288155    0.004628629   -0.021603170
   8   H   :   -0.000493407    0.002706597   -0.011047556
   9   H   :    0.001500570    0.005380072   -0.005501430
  10   H   :    0.004115468    0.005794609   -0.003402389
  11   H   :    0.002650261   -0.006407180   -0.007403990
  12   H   :    0.007775168   -0.002973859   -0.007747276
  13   H   :    0.001555276   -0.001205630    0.008332262

Difference to translation invariance:
           :   -0.0000000000    0.0000000000   -0.0000000000

Norm of the cartesian gradient     ...    0.0855228402
RMS gradient                       ...    0.0136946145
MAX gradient                       ...    0.0589112549

-------
TIMINGS
-------

Total SCF gradient time            ...        4.142 sec

One electron gradient       ....       0.026 sec  (  0.6%)
Prescreening matrices       ....       0.025 sec  (  0.6%)
Two electron gradient       ....       1.318 sec  ( 31.8%)
XC gradient                 ....       2.324 sec  ( 56.1%)
------------------------------------------------------------------------------
                         ORCA GEOMETRY RELAXATION STEP
------------------------------------------------------------------------------

Reading the OPT-File                    .... done
Getting information on internals        .... done
Copying old internal coords+grads       .... done
Making the new internal coordinates     .... (new redundants).... done
Validating the new internal coordinates .... (new redundants).... done
Calculating the B-matrix                .... done
Calculating the G,G- and P matrices     .... done
Transforming gradient to internals      .... done
Projecting the internal gradient        .... done
Number of atoms                         ....  13
Number of internal coordinates          ....  57
Current Energy                          ....  -157.522005613 Eh
Current gradient norm                   ....     0.085522840 Eh/bohr
Maximum allowed component of the step   ....  0.300
Current trust radius                    ....  0.300
Evaluating the initial hessian          ....  (Almloef) done
Projecting the Hessian                  .... done
Forming the augmented Hessian           .... done
Diagonalizing the augmented Hessian     .... done
Last element of RFO vector              ....  0.940722709
Lowest eigenvalues of augmented Hessian:
 -0.020230422  0.011269725  0.013433102  0.013977720  0.063433887
Length of the computed step             ....  0.360548994
Warning: the length of the step is outside the trust region - taking restricted step instead
The input lambda is                     ....    -0.020230
   iter:   1  x=   -0.037660  g=    2.294679 f(x)=     0.039996
   iter:   2  x=   -0.044328  g=    1.376720 f(x)=     0.009180
   iter:   3  x=   -0.044922  g=    1.175735 f(x)=     0.000697
   iter:   4  x=   -0.044926  g=    1.160076 f(x)=     0.000005
   iter:   5  x=   -0.044926  g=    1.159971 f(x)=     0.000000
   iter:   6  x=   -0.044926  g=    1.159971 f(x)=     0.000000
The output lambda is                    ....    -0.044926 (6 iterations)
The final length of the internal step   ....  0.300000000
Converting the step to cartesian space:
 Initial RMS(Int)=    0.0397359707
Transforming coordinates:
 Iter   0:  RMS(Cart)=    0.0613681468 RMS(Int)=    0.0400606684
 Iter   1:  RMS(Cart)=    0.0039310718 RMS(Int)=    0.0030951558
 Iter   2:  RMS(Cart)=    0.0002751283 RMS(Int)=    0.0002692941
 Iter   3:  RMS(Cart)=    0.0000475967 RMS(Int)=    0.0000348012
 Iter   4:  RMS(Cart)=    0.0000037172 RMS(Int)=    0.0000036654
 Iter   5:  RMS(Cart)=    0.0000005842 RMS(Int)=    0.0000003924
 Iter   6:  RMS(Cart)=    0.0000000565 RMS(Int)=    0.0000000537
done
Storing new coordinates                 .... done

                                .--------------------.
          ----------------------|Geometry convergence|-------------------------
          Item                value                   Tolerance       Converged
          ---------------------------------------------------------------------
          RMS gradient        0.0089380366            0.0001000000      NO
          MAX gradient        0.0307896820            0.0003000000      NO
          RMS step            0.0397359707            0.0020000000      NO
          MAX step            0.1120083030            0.0040000000      NO
          ........................................................
          Max(Bonds)      0.0294      Max(Angles)    6.42
          Max(Dihed)        5.89      Max(Improp)    0.00
          ---------------------------------------------------------------------

The optimization has not yet converged - more geometry cycles are needed


    ---------------------------------------------------------------------------
                         Redundant Internal Coordinates
                            (Angstroem and degrees)

        Definition                    Value    dE/dq     Step     New-Value
    ----------------------------------------------------------------------------
     1. B(C   1,C   0)                1.5207 -0.003608  0.0044    1.5251   
     2. B(C   2,C   0)                1.4979 -0.025808  0.0294    1.5273   
     3. B(C   3,C   0)                1.5035 -0.023190  0.0269    1.5303   
     4. B(H   4,C   0)                1.1189  0.002551 -0.0037    1.1153   
     5. B(H   5,C   1)                1.1201  0.007045 -0.0101    1.1100   
     6. B(H   6,C   1)                1.1194  0.007833 -0.0113    1.1082   
     7. B(H   7,C   2)                1.1077  0.001777 -0.0025    1.1052   
     8. B(H   8,C   2)                1.1193  0.005592 -0.0080    1.1112   
     9. B(H   9,C   2)                1.0981 -0.003407  0.0046    1.1027   
    10. B(H  10,C   3)                1.1048 -0.000071  0.0001    1.1049   
    11. B(H  11,C   3)                1.1195  0.007331 -0.0105    1.1090   
    12. B(H  12,C   3)                1.1161  0.007749 -0.0110    1.1051   
    13. A(C   1,C   0,H   4)          105.12  0.002059   -0.53    104.59   
    14. A(C   2,C   0,H   4)          106.58 -0.000689    0.01    106.59   
    15. A(C   1,C   0,C   2)          112.76 -0.000665    0.10    112.86   
    16. A(C   1,C   0,C   3)          111.95 -0.002504    0.51    112.46   
    17. A(C   2,C   0,C   3)          113.10  0.002910   -0.40    112.70   
    18. A(C   3,C   0,H   4)          106.65 -0.001108    0.27    106.93   
    19. A(H   5,C   1,H   6)          104.82  0.001643    3.81    108.63   
    20. A(C   0,C   1,H   6)          109.65 -0.021336    4.76    114.41   
    21. A(C   0,C   1,H   5)          105.43 -0.030790    6.42    111.85   
    22. A(H   7,C   2,H   9)          114.41  0.007576   -2.16    112.25   
    23. A(C   0,C   2,H   9)          114.73  0.006664   -1.34    113.39   
    24. A(H   7,C   2,H   8)          105.16  0.002788    0.45    105.60   
    25. A(C   0,C   2,H   8)          106.59 -0.009581    1.99    108.59   
    26. A(H   8,C   2,H   9)          106.64  0.000970    0.15    106.80   
    27. A(C   0,C   2,H   7)          108.56 -0.009639    1.33    109.90   
    28. A(H  11,C   3,H  12)          110.02  0.006088   -1.08    108.94   
    29. A(H  10,C   3,H  12)          112.98  0.008415   -1.88    111.11   
    30. A(C   0,C   3,H  12)          112.62  0.001938   -0.50    112.12   
    31. A(H  10,C   3,H  11)          106.86  0.005121   -0.13    106.73   
    32. A(C   0,C   3,H  11)          106.43 -0.011676    2.09    108.52   
    33. A(C   0,C   3,H  10)          107.56 -0.011117    1.78    109.34   
    34. D(H   6,C   1,C   0,C   3)    159.35 -0.013302    5.89    165.25   
    35. D(H   6,C   1,C   0,H   4)     43.95 -0.011944    5.62     49.58   
    36. D(H   6,C   1,C   0,C   2)    -71.77 -0.012013    5.87    -65.89   
    37. D(H   5,C   1,C   0,H   4)    -68.41  0.011056   -4.09    -72.50   
    38. D(H   5,C   1,C   0,C   2)    175.87  0.010986   -3.84    172.03   
    39. D(H   5,C   1,C   0,C   3)     46.99  0.009698   -3.82     43.17   
    40. D(H   7,C   2,C   0,C   1)     60.79  0.005612   -2.08     58.71   
    41. D(H   9,C   2,C   0,C   1)    -68.59 -0.001768    0.79    -67.80   
    42. D(H   8,C   2,C   0,H   4)     58.78 -0.002063    0.60     59.38   
    43. D(H   8,C   2,C   0,C   1)    173.61 -0.000345    0.03    173.64   
    44. D(H   7,C   2,C   0,H   4)    -54.05  0.003894   -1.51    -55.55   
    45. D(H   7,C   2,C   0,C   3)   -170.92  0.004077   -1.63   -172.55   
    46. D(H   9,C   2,C   0,C   3)     59.69 -0.003303    1.24     60.93   
    47. D(H   9,C   2,C   0,H   4)    176.57 -0.003486    1.37    177.94   
    48. D(H   8,C   2,C   0,C   3)    -58.10 -0.001880    0.48    -57.62   
    49. D(H  12,C   3,C   0,H   4)   -177.35  0.001256   -0.56   -177.91   
    50. D(H  12,C   3,C   0,C   1)     68.19  0.000722   -0.35     67.84   
    51. D(H  11,C   3,C   0,H   4)    -56.71  0.002214   -0.81    -57.52   
    52. D(H  11,C   3,C   0,C   2)     60.12  0.002280   -0.84     59.28   
    53. D(H  11,C   3,C   0,C   1)   -171.18  0.001679   -0.60   -171.77   
    54. D(H  10,C   3,C   0,H   4)     57.51 -0.002687    0.88     58.39   
    55. D(H  12,C   3,C   0,C   2)    -60.51  0.001323   -0.59    -61.10   
    56. D(H  10,C   3,C   0,C   2)    174.35 -0.002620    0.85    175.19   
    57. D(H  10,C   3,C   0,C   1)    -56.95 -0.003221    1.09    -55.86   
    ----------------------------------------------------------------------------

Time needed for optimization step       :     7.49 sec

         *************************************************************
         *                GEOMETRY OPTIMIZATION CYCLE   2            *
         *************************************************************
---------------------------------
CARTESIAN COORDINATES (ANGSTROEM)
---------------------------------
  C      0.072073   -0.008599   -0.338786
  C     -1.208160   -0.819884   -0.169415
  C      1.273796   -0.644266    0.357176
  C     -0.115352    1.463836    0.033722
  H      0.283329   -0.042329   -1.433359
  H     -2.092240   -0.270513   -0.554942
  H     -1.183652   -1.812462   -0.661624
  H      1.445599   -1.660063   -0.042980
  H      2.183459   -0.062733    0.094132
  H      1.197346   -0.636409    1.457205
  H     -0.942194    1.889346   -0.562937
  H      0.801394    2.018497   -0.252251
  H     -0.294150    1.599935    1.115687

----------------------------
CARTESIAN COORDINATES (A.U.)
----------------------------
  NO LB      ZA    FRAG     MASS         X           Y           Z
   0 C     6.0000    0    12.011    0.136198   -0.016249   -0.640212
   1 C     6.0000    0    12.011   -2.283092   -1.549357   -0.320148
   2 C     6.0000    0    12.011    2.407126   -1.217487    0.674965
   3 C     6.0000    0    12.011   -0.217985    2.766249    0.063726
   4 H     1.0000    0     1.008    0.535414   -0.079990   -2.708657
   5 H     1.0000    0     1.008   -3.953760   -0.511195   -1.048689
   6 H     1.0000    0     1.008   -2.236778   -3.425056   -1.250288
   7 H     1.0000    0     1.008    2.731786   -3.137065   -0.081220
   8 H     1.0000    0     1.008    4.126140   -0.118548    0.177884
   9 H     1.0000    0     1.008    2.262655   -1.202638    2.753719
  10 H     1.0000    0     1.008   -1.780488    3.570347   -1.063797
  11 H     1.0000    0     1.008    1.514415    3.814406   -0.476686
  12 H     1.0000    0     1.008   -0.555864    3.023440    2.108343

--------------------------------
INTERNAL COORDINATES (ANGSTROEM)
--------------------------------
 C      0   0   0     0.000000000000     0.00000000     0.00000000
 C      1   0   0     1.525079576715     0.00000000     0.00000000
 C      1   2   0     1.527276919711   112.86122588     0.00000000
 C      1   2   3     1.530344625966   112.45698826   231.13864863
 H      1   2   3     1.115283913153   104.59084505   115.46900180
 H      2   1   3     1.109971375518   111.51536204   171.81102826
 H      2   1   3     1.108187620854   114.11533786   294.33214817
 H      3   1   2     1.105207876472   109.86856666    58.69629584
 H      3   1   2     1.111242871324   108.56805926   173.65923726
 H      3   1   2     1.102710531836   113.39469156   292.19379340
 H      4   1   2     1.104865466985   109.31453274   304.15978326
 H      4   1   2     1.108987538817   108.49446753   188.20635020
 H      4   1   2     1.105051787969   112.12605918    67.84006779

---------------------------
INTERNAL COORDINATES (A.U.)
---------------------------
 C      0   0   0     0.000000000000     0.00000000     0.00000000
 C      1   0   0     2.881982732427     0.00000000     0.00000000
 C      1   2   0     2.886135108913   112.86122588     0.00000000
 C      1   2   3     2.891932233593   112.45698826   231.13864863
 H      1   2   3     2.107581157427   104.59084505   115.46900180
 H      2   1   3     2.097541916221   111.51536204   171.81102826
 H      2   1   3     2.094171108416   114.11533786   294.33214817
 H      3   1   2     2.088540207585   109.86856666    58.69629584
 H      3   1   2     2.099944695075   108.56805926   173.65923726
 H      3   1   2     2.083820910161   113.39469156   292.19379340
 H      4   1   2     2.087893147429   109.31453274   304.15978326
 H      4   1   2     2.095682734295   108.49446753   188.20635020
 H      4   1   2     2.088245243061   112.12605918    67.84006779


Diagonalization of the overlap matrix:
Smallest eigenvalue                        ... 2.366e-03
Time for diagonalization                   ...    0.001 sec
Threshold for overlap eigenvalues          ... 1.000e-08
Number of eigenvalues below threshold      ... 0
Time for construction of square roots      ...    4.730 sec
Total time needed                          ...    4.731 sec

-------------------
DFT GRID GENERATION
-------------------

General Integration Accuracy     IntAcc      ...  4.340
Radial Grid Type                 RadialGrid  ... Gauss-Chebyshev
Angular Grid (max. acc.)         AngularGrid ... Lebedev-110
Angular grid pruning method      GridPruning ... 3 (G Style)
Weight generation scheme         WeightScheme... Becke
Basis function cutoff            BFCut       ...    1.0000e-12
Integration weight cutoff        WCut        ...    1.0000e-14
Grids for H and He will be reduced by one unit

# of grid points (after initial pruning)     ...  13770 (   0.0 sec)
# of grid points (after weights+screening)   ...  12914 (   0.0 sec)
nearest neighbour list constructed           ...    0.0 sec
Grid point re-assignment to atoms done       ...    0.0 sec
Grid point division into batches done        ...    0.0 sec
Reduced shell lists constructed in    0.1 sec

Total number of grid points                  ...    12914
Total number of batches                      ...      210
Average number of points per batch           ...       61
Average number of grid points per atom       ...      993
Average number of shells per batch           ...    37.16 (88.47%)
Average number of basis functions per batch  ...    66.24 (89.51%)
Average number of large shells per batch     ...    32.57 (87.67%)
Average number of large basis fcns per batch ...    57.61 (86.97%)
Maximum spatial batch extension              ...  20.26, 21.63, 22.44 au
Average spatial batch extension              ...   4.10,  4.33,  4.02 au

Time for grid setup =    2.457 sec

--------------
SCF ITERATIONS
--------------
ITER       Energy         Delta-E        Max-DP      RMS-DP      [F,P]     Damp
               ***  Starting incremental Fock matrix formation  ***
  0   -157.5180517062   0.000000000000 0.00390996  0.00017344  0.0156918 0.7000
  1   -157.5187368122  -0.000685105970 0.00375494  0.00016062  0.0123344 0.7000
                               ***Turning on DIIS***
  2   -157.5192687532  -0.000531941025 0.01076340  0.00042168  0.0092766 0.0000
  3   -157.5206260010  -0.001357247758 0.00264714  0.00008538  0.0019106 0.0000
  4   -157.5206653588  -0.000039357838 0.00121932  0.00004297  0.0010570 0.0000
  5   -157.5206758430  -0.000010484142 0.00141445  0.00004489  0.0006083 0.0000
  6   -157.5206803628  -0.000004519799 0.00034059  0.00001154  0.0001732 0.0000
  7   -157.5206807184  -0.000000355642 0.00005562  0.00000252  0.0000832 0.0000
  8   -157.5206807444  -0.000000025977 0.00002168  0.00000116  0.0000325 0.0000
  9   -157.5206807521  -0.000000007717 0.00000502  0.00000026  0.0000041 0.0000
 10   -157.5206807524  -0.000000000327 0.00000173  0.00000009  0.0000018 0.0000
 11   -157.5206807525  -0.000000000043 0.00000144  0.00000005  0.0000008 0.0000
 12   -157.5206807525  -0.000000000013 0.00000039  0.00000001  0.0000005 0.0000
                 **** Energy Check signals convergence ****

 Fermi smearing  (ALPHA): E(HOMO(Eh)) = -0.329823 MUE = -0.087263 gap=   7.555 eV
 Fermi smearing   (BETA): E(HOMO(Eh)) = -0.324632 MUE = -0.191876 gap=   7.135 eV

N_FOD(alpha) =  0.000000
 N_FOD(beta) =  0.000000
       N_FOD =  0.000000

               *****************************************************
               *                     SUCCESS                       *
               *           SCF CONVERGED AFTER  13 CYCLES          *
               *****************************************************

Setting up the final grid:

General Integration Accuracy     IntAcc      ...  4.670
Radial Grid Type                 RadialGrid  ... Gauss-Chebyshev
Angular Grid (max. acc.)         AngularGrid ... Lebedev-302
Angular grid pruning method      GridPruning ... 3 (G Style)
Weight generation scheme         WeightScheme... Becke
Basis function cutoff            BFCut       ...    1.0000e-12
Integration weight cutoff        WCut        ...    1.0000e-14
Grids for H and He will be reduced by one unit

# of grid points (after initial pruning)     ...  55394 (   0.0 sec)
# of grid points (after weights+screening)   ...  51307 (   0.1 sec)
nearest neighbour list constructed           ...    0.0 sec
Grid point re-assignment to atoms done       ...    0.0 sec
Grid point division into batches done        ...    0.1 sec
Reduced shell lists constructed in    0.3 sec

Total number of grid points                  ...    51307
Total number of batches                      ...      808
Average number of points per batch           ...       63
Average number of grid points per atom       ...     3947
Average number of shells per batch           ...    34.79 (82.84%)
Average number of basis functions per batch  ...    61.75 (83.44%)
Average number of large shells per batch     ...    29.76 (85.54%)
Average number of large basis fcns per batch ...    52.17 (84.48%)
Maximum spatial batch extension              ...  20.00, 18.83, 17.80 au
Average spatial batch extension              ...   2.64,  2.63,  2.58 au

Final grid set up in    3.1 sec
Final integration                            ... done (  20.6 sec)
Change in XC energy                          ...     0.000171219
Integrated number of electrons               ...    33.000014503
Previous integrated no of electrons          ...    33.000359794
Total Energy       :         -157.52050953 Eh           -4286.35098 eV
  Last Energy change         ...    1.2079e-11  Tolerance :   1.0000e-09
  Last MAX-Density change    ...    1.7345e-07  Tolerance :   1.0000e-08
             **** THE GBW FILE WAS UPDATED (orca6.gbw) ****
             **** DENSITY FILE WAS UPDATED (orca6.scfp) ****
             **** ENERGY FILE WAS UPDATED (orca6.en.tmp) ****
             **** THE GBW FILE WAS UPDATED (orca6.gbw) ****
             **** DENSITY FILE WAS UPDATED (orca6.scfp) ****
Total SCF time: 0 days 0 hours 8 min 58 sec 


-------------------------------------------------------------------------------
                          DFT DISPERSION CORRECTION                            
                                                                               
                              DFTD3 V3.1  Rev 1                                
                          USING Becke-Johnson damping                          
-------------------------------------------------------------------------------
-------------------------   ----------------
Dispersion correction           -0.014339870
-------------------------   ----------------


-------------------------   --------------------
FINAL SINGLE POINT ENERGY      -157.534849403632
-------------------------   --------------------

------------------------------------------------------------------------------
                         ORCA SCF GRADIENT CALCULATION
------------------------------------------------------------------------------

Gradient of the Kohn-Sham DFT energy:
Kohn-Sham wavefunction type      ... UKS
Hartree-Fock exchange scaling    ...    0.200
Number of operators              ...    2
Number of atoms                  ...   13
Basis set dimensions             ...   74
Integral neglect threshold       ... 1.0e-12
Integral primitive cutoff        ... 1.0e-14

Nuclear repulsion gradient       ... done
One Electron Gradient            ... done
Pre-screening matrix             ... done
Starting the two electron gradient:
Two electron gradient done
Exchange-correlation gradient    ... done
Dispersion correction            ... done

------------------
CARTESIAN GRADIENT
------------------

   1   C   :    0.011986315    0.008207321   -0.009304443
   2   C   :   -0.004452406   -0.010262938    0.034773576
   3   C   :   -0.012161676   -0.006159063    0.010477936
   4   C   :   -0.007267511    0.000348575    0.007880851
   5   H   :    0.000049635   -0.000296008   -0.000395507
   6   H   :    0.002392384    0.001485248   -0.012615217
   7   H   :   -0.001970251    0.003423909   -0.013486632
   8   H   :    0.001260185    0.002520756   -0.006784337
   9   H   :    0.000926979    0.001312905   -0.002266825
  10   H   :    0.003304765    0.004120625   -0.000733498
  11   H   :    0.002158754   -0.002302557   -0.004720191
  12   H   :    0.001744064   -0.001660166   -0.003790012
  13   H   :    0.002028762   -0.000738608    0.000964300

Difference to translation invariance:
           :    0.0000000000    0.0000000000   -0.0000000000

Norm of the cartesian gradient     ...    0.0505526566
RMS gradient                       ...    0.0080949036
MAX gradient                       ...    0.0347735755

-------
TIMINGS
-------

Total SCF gradient time            ...        4.830 sec

One electron gradient       ....       0.026 sec  (  0.5%)
Prescreening matrices       ....       0.027 sec  (  0.6%)
Two electron gradient       ....       1.346 sec  ( 27.9%)
XC gradient                 ....       2.329 sec  ( 48.2%)
------------------------------------------------------------------------------
                         ORCA GEOMETRY RELAXATION STEP
------------------------------------------------------------------------------

Reading the OPT-File                    .... done
Getting information on internals        .... done
Copying old internal coords+grads       .... done
Making the new internal coordinates     .... (new redundants).... done
Validating the new internal coordinates .... (new redundants).... done
Calculating the B-matrix                .... done
Calculating the G,G- and P matrices     .... done
Transforming gradient to internals      .... done
Projecting the internal gradient        .... done
Number of atoms                         ....  13
Number of internal coordinates          ....  57
Current Energy                          ....  -157.534849404 Eh
Current gradient norm                   ....     0.050552657 Eh/bohr
Maximum allowed component of the step   ....  0.300
Current trust radius                    ....  0.300
Updating the Hessian (BFGS)             .... done
Forming the augmented Hessian           .... done
Diagonalizing the augmented Hessian     .... done
Last element of RFO vector              ....  0.941005951
Lowest eigenvalues of augmented Hessian:
 -0.009726830  0.011244925  0.013432780  0.013977422  0.063035577
Length of the computed step             ....  0.359604540
Warning: the length of the step is outside the trust region - taking restricted step instead
The input lambda is                     ....    -0.009727
   iter:   1  x=   -0.019795  g=    3.904730 f(x)=     0.039315
   iter:   2  x=   -0.023164  g=    2.450421 f(x)=     0.008254
   iter:   3  x=   -0.023409  g=    2.148061 f(x)=     0.000526
   iter:   4  x=   -0.023410  g=    2.128272 f(x)=     0.000002
   iter:   5  x=   -0.023410  g=    2.128181 f(x)=     0.000000
   iter:   6  x=   -0.023410  g=    2.128181 f(x)=     0.000000
The output lambda is                    ....    -0.023410 (6 iterations)
The final length of the internal step   ....  0.300000000
Converting the step to cartesian space:
 Initial RMS(Int)=    0.0397359707
Transforming coordinates:
 Iter   0:  RMS(Cart)=    0.0489839564 RMS(Int)=    0.0399202159
 Iter   1:  RMS(Cart)=    0.0035927872 RMS(Int)=    0.0027742880
 Iter   2:  RMS(Cart)=    0.0002182315 RMS(Int)=    0.0002329745
 Iter   3:  RMS(Cart)=    0.0000304774 RMS(Int)=    0.0000226559
 Iter   4:  RMS(Cart)=    0.0000026246 RMS(Int)=    0.0000025629
 Iter   5:  RMS(Cart)=    0.0000003009 RMS(Int)=    0.0000002148
 Iter   6:  RMS(Cart)=    0.0000000340 RMS(Int)=    0.0000000307
done
Storing new coordinates                 .... done

                                .--------------------.
          ----------------------|Geometry convergence|-------------------------
          Item                value                   Tolerance       Converged
          ---------------------------------------------------------------------
          Energy change      -0.0128437907            0.0000050000      NO
          RMS gradient        0.0040018321            0.0001000000      NO
          MAX gradient        0.0124250961            0.0003000000      NO
          RMS step            0.0397359707            0.0020000000      NO
          MAX step            0.1205432586            0.0040000000      NO
          ........................................................
          Max(Bonds)      0.0156      Max(Angles)    5.20
          Max(Dihed)        6.91      Max(Improp)    0.00
          ---------------------------------------------------------------------

The optimization has not yet converged - more geometry cycles are needed


    ---------------------------------------------------------------------------
                         Redundant Internal Coordinates
                            (Angstroem and degrees)

        Definition                    Value    dE/dq     Step     New-Value
    ----------------------------------------------------------------------------
     1. B(C   1,C   0)                1.5251  0.007199 -0.0156    1.5095   
     2. B(C   2,C   0)                1.5273 -0.005679  0.0125    1.5398   
     3. B(C   3,C   0)                1.5303 -0.003945  0.0090    1.5394   
     4. B(H   4,C   0)                1.1153  0.000406 -0.0011    1.1142   
     5. B(H   5,C   1)                1.1100  0.003214 -0.0085    1.1015   
     6. B(H   6,C   1)                1.1082  0.002875 -0.0076    1.1006   
     7. B(H   7,C   2)                1.1052  0.000337 -0.0009    1.1043   
     8. B(H   8,C   2)                1.1112  0.001980 -0.0052    1.1060   
     9. B(H   9,C   2)                1.1027 -0.000931  0.0023    1.1050   
    10. B(H  10,C   3)                1.1049  0.000046 -0.0001    1.1048   
    11. B(H  11,C   3)                1.1090  0.001594 -0.0043    1.1047   
    12. B(H  12,C   3)                1.1051  0.000521 -0.0015    1.1036   
    13. A(C   1,C   0,H   4)          104.59 -0.000099    0.41    105.00   
    14. A(C   2,C   0,H   4)          106.59 -0.000277    0.19    106.78   
    15. A(C   1,C   0,C   2)          112.86  0.000193   -0.29    112.57   
    16. A(C   1,C   0,C   3)          112.46 -0.000650    0.04    112.50   
    17. A(C   2,C   0,C   3)          112.70  0.001222   -0.62    112.08   
    18. A(C   3,C   0,H   4)          106.93 -0.000531    0.42    107.35   
    19. A(H   5,C   1,H   6)          107.86 -0.000504    4.43    112.29   
    20. A(C   0,C   1,H   6)          114.12 -0.006790    3.41    117.53   
    21. A(C   0,C   1,H   5)          111.52 -0.012425    5.20    116.72   
    22. A(H   7,C   2,H   9)          112.24  0.004278   -2.38    109.86   
    23. A(C   0,C   2,H   9)          113.39  0.004145   -1.56    111.83   
    24. A(H   7,C   2,H   8)          105.55  0.000189    1.05    106.60   
    25. A(C   0,C   2,H   8)          108.57 -0.003640    1.63    110.20   
    26. A(H   8,C   2,H   9)          106.81 -0.000837    0.62    107.43   
    27. A(C   0,C   2,H   7)          109.87 -0.004581    1.09    110.96   
    28. A(H  11,C   3,H  12)          108.94  0.002435   -0.77    108.17   
    29. A(H  10,C   3,H  12)          111.11  0.004283   -1.92    109.20   
    30. A(C   0,C   3,H  12)          112.13  0.001464   -0.68    111.45   
    31. A(H  10,C   3,H  11)          106.66  0.001646    0.38    107.05   
    32. A(C   0,C   3,H  11)          108.49 -0.005102    1.79    110.28   
    33. A(C   0,C   3,H  10)          109.31 -0.004899    1.42    110.74   
    34. D(H   6,C   1,C   0,C   3)    165.47 -0.009176    6.91    172.38   
    35. D(H   6,C   1,C   0,H   4)     49.80 -0.008172    6.16     55.96   
    36. D(H   6,C   1,C   0,C   2)    -65.67 -0.007877    5.84    -59.83   
    37. D(H   5,C   1,C   0,H   4)    -72.72  0.007331   -4.38    -77.10   
    38. D(H   5,C   1,C   0,C   2)    171.81  0.007625   -4.70    167.11   
    39. D(H   5,C   1,C   0,C   3)     42.95  0.006327   -3.63     39.32   
    40. D(H   7,C   2,C   0,C   1)     58.70  0.003041   -1.74     56.95   
    41. D(H   9,C   2,C   0,C   1)    -67.81 -0.002167    1.82    -65.99   
    42. D(H   8,C   2,C   0,H   4)     59.40 -0.001037    0.42     59.81   
    43. D(H   8,C   2,C   0,C   1)    173.66 -0.001222    0.87    174.53   
    44. D(H   7,C   2,C   0,H   4)    -55.57  0.003226   -2.20    -57.76   
    45. D(H   7,C   2,C   0,C   3)   -172.57  0.003374   -2.48   -175.05   
    46. D(H   9,C   2,C   0,C   3)     60.93 -0.001834    1.08     62.01   
[...]

             **** THE GBW FILE WAS UPDATED (orca6.gbw) ****
             **** DENSITY FILE WAS UPDATED (orca6.scfp) ****
             **** ENERGY FILE WAS UPDATED (orca6.en.tmp) ****
             **** THE GBW FILE WAS UPDATED (orca6.gbw) ****
             **** DENSITY FILE WAS UPDATED (orca6.scfp) ****
----------------
ORBITAL ENERGIES
----------------
                 SPIN UP ORBITALS
  NO   OCC          E(Eh)            E(eV) 
   0   1.0000     -10.188367      -277.2396 
   1   1.0000     -10.179977      -277.0112 
   2   1.0000     -10.168660      -276.7033 
   3   1.0000     -10.168146      -276.6893 
   4   1.0000      -0.793659       -21.5966 
   5   1.0000      -0.671647       -18.2764 
   6   1.0000      -0.661373       -17.9969 
   7   1.0000      -0.549004       -14.9392 
   8   1.0000      -0.456162       -12.4128 
   9   1.0000      -0.438796       -11.9402 
  10   1.0000      -0.430570       -11.7164 
  11   1.0000      -0.382550       -10.4097 
  12   1.0000      -0.367976       -10.0131 
  13   1.0000      -0.347019        -9.4429 
  14   1.0000      -0.338232        -9.2038 
  15   1.0000      -0.332462        -9.0468 
  16   1.0000      -0.201807        -5.4915 
  17   0.0000       0.059132         1.6091 
  18   0.0000       0.105409         2.8683 
  19   0.0000       0.107553         2.9267 
  20   0.0000       0.107769         2.9326 
  21   0.0000       0.123150         3.3511 
  22   0.0000       0.129821         3.5326 
  23   0.0000       0.146116         3.9760 
  24   0.0000       0.166872         4.5408 
  25   0.0000       0.179379         4.8812 
  26   0.0000       0.209243         5.6938 
  27   0.0000       0.254678         6.9301 
  28   0.0000       0.259804         7.0696 
  29   0.0000       0.404407        11.0045 
  30   0.0000       0.423073        11.5124 
  31   0.0000       0.425233        11.5712 
  32   0.0000       0.442318        12.0361 
  33   0.0000       0.484050        13.1717 
  34   0.0000       0.498747        13.5716 
  35   0.0000       0.556399        15.1404 
  36   0.0000       0.608110        16.5475 
  37   0.0000       0.649182        17.6651 
  38   0.0000       0.653800        17.7908 
  39   0.0000       0.657152        17.8820 
  40   0.0000       0.663208        18.0468 
  41   0.0000       0.671983        18.2856 
  42   0.0000       0.693196        18.8628 
  43   0.0000       0.702786        19.1238 
  44   0.0000       0.707185        19.2435 
  45   0.0000       0.719129        19.5685 
  46   0.0000       0.732110        19.9217 
  47   0.0000       0.748530        20.3685 
  48   0.0000       0.756682        20.5904 
  49   0.0000       0.762144        20.7390 
  50   0.0000       0.874899        23.8072 
  51   0.0000       0.937398        25.5079 
  52   0.0000       1.046230        28.4694 
  53   0.0000       1.069701        29.1080 
  54   0.0000       1.396822        38.0095 
  55   0.0000       1.490307        40.5533 
  56   0.0000       1.679657        45.7058 
  57   0.0000       1.744922        47.4818 
  58   0.0000       1.767374        48.0927 
  59   0.0000       1.850695        50.3600 
  60   0.0000       1.915864        52.1333 
  61   0.0000       1.938293        52.7436 
  62   0.0000       1.956888        53.2496 
  63   0.0000       1.992138        54.2088 
  64   0.0000       2.059576        56.0439 
  65   0.0000       2.091682        56.9175 
  66   0.0000       2.145679        58.3869 
  67   0.0000       2.152403        58.5699 
  68   0.0000       2.163446        58.8704 
  69   0.0000       2.427119        66.0453 
  70   0.0000       2.442012        66.4505 
  71   0.0000       2.466967        67.1296 
  72   0.0000       2.675400        72.8013 
  73   0.0000       2.691319        73.2345 

                 SPIN DOWN ORBITALS
  NO   OCC          E(Eh)            E(eV) 
   0   1.0000     -10.189336      -277.2659 
   1   1.0000     -10.168067      -276.6872 
   2   1.0000     -10.167882      -276.6821 
   3   1.0000     -10.165491      -276.6171 
   4   1.0000      -0.786656       -21.4060 
   5   1.0000      -0.670991       -18.2586 
   6   1.0000      -0.637863       -17.3571 
   7   1.0000      -0.538932       -14.6651 
   8   1.0000      -0.450220       -12.2511 
   9   1.0000      -0.433055       -11.7840 
  10   1.0000      -0.428073       -11.6484 
  11   1.0000      -0.381989       -10.3945 
  12   1.0000      -0.365321        -9.9409 
  13   1.0000      -0.340434        -9.2637 
  14   1.0000      -0.331860        -9.0304 
  15   1.0000      -0.329741        -8.9727 
  16   0.0000      -0.045690        -1.2433 
  17   0.0000       0.061685         1.6785 
  18   0.0000       0.106998         2.9116 
  19   0.0000       0.108504         2.9525 
  20   0.0000       0.115097         3.1319 
  21   0.0000       0.126765         3.4495 
  22   0.0000       0.131944         3.5904 
  23   0.0000       0.147730         4.0199 
  24   0.0000       0.166984         4.5439 
  25   0.0000       0.180715         4.9175 
  26   0.0000       0.212309         5.7772 
  27   0.0000       0.255382         6.9493 
  28   0.0000       0.267685         7.2841 
  29   0.0000       0.406233        11.0542 
  30   0.0000       0.426438        11.6040 
  31   0.0000       0.431546        11.7430 
  32   0.0000       0.443306        12.0630 
  33   0.0000       0.501984        13.6597 
  34   0.0000       0.539017        14.6674 
  35   0.0000       0.583996        15.8913 
  36   0.0000       0.618977        16.8432 
  37   0.0000       0.651183        17.7196 
  38   0.0000       0.656680        17.8692 
  39   0.0000       0.661335        17.9959 
  40   0.0000       0.667604        18.1664 
  41   0.0000       0.681788        18.5524 
  42   0.0000       0.694161        18.8891 
  43   0.0000       0.706437        19.2231 
  44   0.0000       0.709970        19.3193 
  45   0.0000       0.719254        19.5719 
  46   0.0000       0.734980        19.9998 
  47   0.0000       0.751536        20.4503 
  48   0.0000       0.762853        20.7583 
  49   0.0000       0.768562        20.9136 
  50   0.0000       0.882693        24.0193 
  51   0.0000       0.940572        25.5943 
  52   0.0000       1.050886        28.5961 
  53   0.0000       1.073465        29.2105 
  54   0.0000       1.410683        38.3866 
  55   0.0000       1.491153        40.5763 
  56   0.0000       1.729986        47.0753 
  57   0.0000       1.747493        47.5517 
  58   0.0000       1.780825        48.4587 
  59   0.0000       1.864723        50.7417 
  60   0.0000       1.928081        52.4658 
  61   0.0000       1.952064        53.1184 
  62   0.0000       1.980387        53.8891 
  63   0.0000       2.015570        54.8464 
  64   0.0000       2.084391        56.7192 
  65   0.0000       2.100862        57.1674 
  66   0.0000       2.146567        58.4110 
  67   0.0000       2.157700        58.7140 
  68   0.0000       2.168840        59.0171 
  69   0.0000       2.436665        66.3050 
  70   0.0000       2.452585        66.7382 
  71   0.0000       2.470410        67.2233 
  72   0.0000       2.682169        72.9855 
  73   0.0000       2.692619        73.2699 

                    ********************************
                    * MULLIKEN POPULATION ANALYSIS *
                    ********************************

------------------------------------------
FOD BASED MULLIKEN REDUCED ORBITAL CHARGES
------------------------------------------
  0 C s       :    -0.000000  s :    -0.000000
      pz      :     0.000000  p :     0.000000
      px      :     0.000000
      py      :     0.000000
      dz2     :     0.000000  d :     0.000000
      dxz     :     0.000000
      dyz     :     0.000000
      dx2y2   :     0.000000
      dxy     :     0.000000
  1 C s       :    -0.000000  s :    -0.000000
      pz      :     0.000000  p :     0.000000
      px      :     0.000000
      py      :     0.000000
      dz2     :     0.000000  d :     0.000000
      dxz     :     0.000000
      dyz     :     0.000000
      dx2y2   :     0.000000
      dxy     :     0.000000
  2 C s       :    -0.000000  s :    -0.000000
      pz      :     0.000000  p :     0.000000
      px      :     0.000000
      py      :     0.000000
      dz2     :     0.000000  d :     0.000000
      dxz     :     0.000000
      dyz     :     0.000000
      dx2y2   :     0.000000
      dxy     :     0.000000
  3 C s       :    -0.000000  s :    -0.000000
      pz      :     0.000000  p :     0.000000
      px      :     0.000000
      py      :     0.000000
      dz2     :     0.000000  d :     0.000000
      dxz     :     0.000000
      dyz     :     0.000000
      dx2y2   :     0.000000
      dxy     :     0.000000
  4 H s       :     0.000000  s :     0.000000
  5 H s       :     0.000000  s :     0.000000
  6 H s       :     0.000000  s :     0.000000
  7 H s       :     0.000000  s :     0.000000
  8 H s       :     0.000000  s :     0.000000
  9 H s       :     0.000000  s :     0.000000
 10 H s       :     0.000000  s :     0.000000
 11 H s       :     0.000000  s :     0.000000
 12 H s       :     0.000000  s :     0.000000


                     *******************************
                     * LOEWDIN POPULATION ANALYSIS *
                     *******************************

-------------------------------------------
LOEWDIN ATOMIC CHARGES AND SPIN POPULATIONS
-------------------------------------------
   0 C :   -0.159955   -0.013742
   1 C :   -0.223904    0.979434
   2 C :   -0.308858    0.009602
   3 C :   -0.308586    0.020013
   4 H :    0.116448    0.052766
   5 H :    0.111206   -0.025580
   6 H :    0.112656   -0.025951
   7 H :    0.110382   -0.000345
   8 H :    0.109399   -0.000108
   9 H :    0.110987    0.001142
  10 H :    0.110363   -0.000423
  11 H :    0.109072    0.001870
  12 H :    0.110791    0.001321

----------------------------------------------------
LOEWDIN REDUCED ORBITAL CHARGES AND SPIN POPULATIONS
----------------------------------------------------
CHARGE
  0 C s       :     2.876040  s :     2.876040
      pz      :     1.061467  p :     3.172176
      px      :     1.057870
      py      :     1.052839
      dz2     :     0.028193  d :     0.111739
      dxz     :     0.018940
      dyz     :     0.013260
      dx2y2   :     0.024154
      dxy     :     0.027192
  1 C s       :     3.017527  s :     3.017527
      pz      :     1.009463  p :     3.149384
      px      :     1.065891
      py      :     1.074030
      dz2     :     0.005614  d :     0.056993
      dxz     :     0.006471
      dyz     :     0.002557
      dx2y2   :     0.024958
      dxy     :     0.017393
  2 C s       :     2.957069  s :     2.957069
      pz      :     1.105989  p :     3.279090
      px      :     1.074985
      py      :     1.098116
      dz2     :     0.024049  d :     0.072699
      dxz     :     0.008520
      dyz     :     0.007462
      dx2y2   :     0.016185
      dxy     :     0.016483
  3 C s       :     2.959049  s :     2.959049
      pz      :     1.113260  p :     3.276957
      px      :     1.107218
      py      :     1.056479
      dz2     :     0.021136  d :     0.072581
      dxz     :     0.009514
      dyz     :     0.009365
      dx2y2   :     0.011578
      dxy     :     0.020987
  4 H s       :     0.883552  s :     0.883552
  5 H s       :     0.888794  s :     0.888794
  6 H s       :     0.887344  s :     0.887344
  7 H s       :     0.889618  s :     0.889618
  8 H s       :     0.890601  s :     0.890601
  9 H s       :     0.889013  s :     0.889013
 10 H s       :     0.889637  s :     0.889637
 11 H s       :     0.890928  s :     0.890928
 12 H s       :     0.889209  s :     0.889209

SPIN
  0 C s       :    -0.004870  s :    -0.004870
      pz      :    -0.006971  p :    -0.026322
      px      :    -0.012383
      py      :    -0.006968
      dz2     :     0.002780  d :     0.017451
      dxz     :     0.009518
      dyz     :     0.003069
      dx2y2   :     0.001391
      dxy     :     0.000693
  1 C s       :     0.039413  s :     0.039413
      pz      :     0.852378  p :     0.943882
      px      :     0.029845
      py      :     0.061658
      dz2     :    -0.002161  d :    -0.003861
      dxz     :     0.000028
      dyz     :    -0.000329
      dx2y2   :    -0.000753
      dxy     :    -0.000647
  2 C s       :     0.003043  s :     0.003043
      pz      :     0.000385  p :     0.006733
      px      :     0.003562
      py      :     0.002787
      dz2     :    -0.000091  d :    -0.000174
      dxz     :    -0.000022
      dyz     :     0.000051
      dx2y2   :    -0.000123
      dxy     :     0.000011
  3 C s       :     0.007079  s :     0.007079
      pz      :     0.000672  p :     0.012991
      px      :     0.000982
      py      :     0.011337
      dz2     :    -0.000133  d :    -0.000057
      dxz     :     0.000174
      dyz     :    -0.000096
      dx2y2   :    -0.000021
      dxy     :     0.000018
  4 H s       :     0.052766  s :     0.052766
  5 H s       :    -0.025580  s :    -0.025580
  6 H s       :    -0.025951  s :    -0.025951
  7 H s       :    -0.000345  s :    -0.000345
  8 H s       :    -0.000108  s :    -0.000108
  9 H s       :     0.001142  s :     0.001142
 10 H s       :    -0.000423  s :    -0.000423
 11 H s       :     0.001870  s :     0.001870
 12 H s       :     0.001321  s :     0.001321


                      *****************************
                      * MAYER POPULATION ANALYSIS *
                      *****************************

  NA   - Mulliken gross atomic population
  ZA   - Total nuclear charge
  QA   - Mulliken gross atomic charge
  VA   - Mayer's total valence
  BVA  - Mayer's bonded valence
  FA   - Mayer's free valence

  ATOM       NA         ZA         QA         VA         BVA        FA
  0 C      6.0957     6.0000    -0.0957     4.1917     4.1887     0.0030
  1 C      6.2377     6.0000    -0.2377     3.8813     2.9955     0.8858
  2 C      6.2454     6.0000    -0.2454     3.9581     3.9580     0.0001
  3 C      6.2444     6.0000    -0.2444     3.9549     3.9546     0.0003
  4 H      0.9206     1.0000     0.0794     0.9345     0.9309     0.0035
  5 H      0.9000     1.0000     0.1000     0.9527     0.9499     0.0028
  6 H      0.8977     1.0000     0.1023     0.9544     0.9515     0.0029
  7 H      0.9087     1.0000     0.0913     0.9547     0.9547     0.0000
  8 H      0.9125     1.0000     0.0875     0.9582     0.9582     0.0000
  9 H      0.9078     1.0000     0.0922     0.9610     0.9610     0.0000
 10 H      0.9076     1.0000     0.0924     0.9554     0.9554     0.0000
 11 H      0.9117     1.0000     0.0883     0.9572     0.9572     0.0000
 12 H      0.9103     1.0000     0.0897     0.9633     0.9632     0.0000

  Mayer bond orders larger than 0.100000
B(  0-C ,  1-C ) :   1.0778 B(  0-C ,  2-C ) :   1.0941 B(  0-C ,  3-C ) :   1.0901 
B(  0-C ,  4-H ) :   0.8979 B(  1-C ,  5-H ) :   0.9408 B(  1-C ,  6-H ) :   0.9418 
B(  2-C ,  7-H ) :   0.9561 B(  2-C ,  8-H ) :   0.9583 B(  2-C ,  9-H ) :   0.9585 
B(  3-C , 10-H ) :   0.9578 B(  3-C , 11-H ) :   0.9568 B(  3-C , 12-H ) :   0.9584 


-------
TIMINGS
-------

Total SCF time: 0 days 0 hours 4 min 45 sec 

Total time                  ....     285.929 sec
Sum of individual times     ....     228.687 sec  ( 80.0%)

Fock matrix formation       ....     189.888 sec  ( 66.4%)
  XC integration            ....     100.381 sec  ( 52.9% of F)
    Basis function eval.    ....       0.530 sec  (  0.5% of XC)
    Density eval.           ....       0.363 sec  (  0.4% of XC)
    XC-Functional eval.     ....       0.229 sec  (  0.2% of XC)
    XC-Potential eval.      ....       0.511 sec  (  0.5% of XC)
Diagonalization             ....       1.389 sec  (  0.5%)
Density matrix formation    ....      14.134 sec  (  4.9%)
Population analysis         ....      14.963 sec  (  5.2%)
Initial guess               ....       0.004 sec  (  0.0%)
Orbital Transformation      ....       0.000 sec  (  0.0%)
Orbital Orthonormalization  ....       0.002 sec  (  0.0%)
DIIS solution               ....       6.090 sec  (  2.1%)
Grid generation             ....       2.221 sec  (  0.8%)


-------------------------------------------------------------------------------
                          DFT DISPERSION CORRECTION                            
                                                                               
                              DFTD3 V3.1  Rev 1                                
                          USING Becke-Johnson damping                          
-------------------------------------------------------------------------------
The B3LYP functional is recognized
Active option DFTDOPT                   ...         4   

molecular C6(AA) [au] = 1132.638566 


            DFT-D V3
 parameters
 s6 scaling factor         :     1.0000 
 a1 scaling factor         :     0.3981 
 s8 scaling factor         :     1.9889 
 a2 scaling factor         :     4.4211 
 ad hoc parameters k1-k3   :    16.0000     1.3333    -4.0000 

 Edisp/kcal,au: -9.021852174337  -0.014377235062 
 E6   /kcal   :  -4.466027948 
 E8   /kcal   :  -4.555824226 
 % E8         :  50.497659885 

-------------------------   ----------------
Dispersion correction           -0.014377235
-------------------------   ----------------


-------------------------   --------------------
FINAL SINGLE POINT ENERGY      -157.545267265014
-------------------------   --------------------

                                *** OPTIMIZATION RUN DONE ***

                            ***************************************
                            *     ORCA property calculations      *
                            ***************************************

                                    ---------------------
                                    Active property flags
                                    ---------------------
   (+) Dipole Moment


------------------------------------------------------------------------------
                       ORCA ELECTRIC PROPERTIES CALCULATION
------------------------------------------------------------------------------

Dipole Moment Calculation                       ... on
Quadrupole Moment Calculation                   ... off
Polarizability Calculation                      ... off
GBWName                                         ... orca6.gbw
Electron density file                           ... orca6.scfp
The origin for moment calculation is the CENTER OF MASS  = ( 0.080049,  0.057387 -0.215795)

-------------
DIPOLE MOMENT
-------------
                                X             Y             Z
Electronic contribution:     -0.82660      -0.60619      -0.61440
Nuclear contribution   :      0.89157       0.63452       0.53884
                        -----------------------------------------
Total Dipole Moment    :      0.06496       0.02833      -0.07556
                        -----------------------------------------
Magnitude (a.u.)       :      0.10360
Magnitude (Debye)      :      0.26333



--------------------
Rotational spectrum 
--------------------
 
Rotational constants in cm-1:     0.278746     0.262015     0.153057 
Rotational constants in MHz :  8356.602945  7855.013600  4588.547641 

 Dipole components along the rotational axes: 
x,y,z [a.u.] :     0.003864     0.050629    -0.090303 
x,y,z [Debye]:     0.009821     0.128688    -0.229531 

 

Timings for individual modules:

Sum of individual times         ...     7361.880 sec (= 122.698 min)
GTO integral calculation        ...      178.921 sec (=   2.982 min)   2.4 %
SCF iterations                  ...     7017.028 sec (= 116.950 min)  95.3 %
SCF Gradient evaluation         ...       93.854 sec (=   1.564 min)   1.3 %
Geometry relaxation             ...       72.078 sec (=   1.201 min)   1.0 %
                             ****ORCA TERMINATED NORMALLY****
TOTAL RUN TIME: 0 days 2 hours 7 minutes 38 seconds 66 msec
