
                                 *****************
                                 * O   R   C   A *
                                 *****************

           --- An Ab Initio, DFT and Semiempirical electronic structure package ---

                  #######################################################
                  #                        -***-                        #
                  #          Department of theory and spectroscopy      #
                  #               Directorship: Frank Neese             #
                  #        Max Planck Institute fuer Kohlenforschung    #
                  #                Kaiser Wilhelm Platz 1               #
                  #                 D-45470 Muelheim/Ruhr               #
                  #                      Germany                        #
                  #                                                     #
                  #                  All rights reserved                #
                  #                        -***-                        #
                  #######################################################


                         Program Version 4.2.1 -  RELEASE  -


 With contributions from (in alphabetic order):
   Daniel Aravena         : Magnetic Suceptibility
   Michael Atanasov       : Ab Initio Ligand Field Theory (pilot matlab implementation)
   Alexander A. Auer      : GIAO ZORA, VPT2
   Ute Becker             : Parallelization
   Giovanni Bistoni       : ED, misc. LED, open-shell LED, HFLD
   Martin Brehm           : Molecular dynamics
   Dmytro Bykov           : SCF Hessian
   Vijay G. Chilkuri      : MRCI spin determinant printing, contributions to CSF-ICE
   Dipayan Datta          : RHF DLPNO-CCSD density
   Achintya Kumar Dutta   : EOM-CC, STEOM-CC
   Dmitry Ganyushin       : Spin-Orbit,Spin-Spin,Magnetic field MRCI
   Miquel Garcia          : C-PCM Hessian, Gaussian charge scheme
   Yang Guo               : DLPNO-NEVPT2, CIM, IAO-localization
   Andreas Hansen         : Spin unrestricted coupled pair/coupled cluster methods
   Benjamin Helmich-Paris : CASSCF linear response (MC-RPA)
   Lee Huntington         : MR-EOM, pCC
   Robert Izsak           : Overlap fitted RIJCOSX, COSX-SCS-MP3, EOM
   Christian Kollmar      : KDIIS, OOCD, Brueckner-CCSD(T), CCSD density
   Simone Kossmann        : Meta GGA functionals, TD-DFT gradient, OOMP2, MP2 Hessian
   Martin Krupicka        : AUTO-CI
   Lucas Lang             : DCDCAS
   Dagmar Lenk            : GEPOL surface, SMD
   Dimitrios Liakos       : Extrapolation schemes; Compound Job, initial MDCI parallelization
   Dimitrios Manganas     : Further ROCIS development; embedding schemes
   Dimitrios Pantazis     : SARC Basis sets
   Taras Petrenko         : DFT Hessian,TD-DFT gradient, ASA, ECA, R-Raman, ABS, FL, XAS/XES, NRVS
   Peter Pinski           : DLPNO-MP2, DLPNO-MP2 Gradient
   Christoph Reimann      : Effective Core Potentials
   Marius Retegan         : Local ZFS, SOC
   Christoph Riplinger    : Optimizer, TS searches, QM/MM, DLPNO-CCSD(T), (RO)-DLPNO pert. Triples
   Tobias Risthaus        : Range-separated hybrids, TD-DFT gradient, RPA, STAB
   Michael Roemelt        : Original ROCIS implementation
   Masaaki Saitow         : Open-shell DLPNO-CCSD energy and density
   Barbara Sandhoefer     : DKH picture change effects
   Avijit Sen             : IP-ROCIS
   Kantharuban Sivalingam : CASSCF convergence, NEVPT2, FIC-MRCI
   Bernardo de Souza      : ESD, SOC TD-DFT
   Georgi Stoychev        : AutoAux, RI-MP2 NMR
   Willem Van den Heuvel  : Paramagnetic NMR
   Boris Wezisla          : Elementary symmetry handling
   Frank Wennmohs         : Technical directorship


 We gratefully acknowledge several colleagues who have allowed us to
 interface, adapt or use parts of their codes:
   Stefan Grimme, W. Hujo, H. Kruse,             : VdW corrections, initial TS optimization,
                  C. Bannwarth                     DFT functionals, gCP, sTDA/sTD-DF
   Ed Valeev, F. Pavosevic, A. Kumar             : LibInt (2-el integral package), F12 methods
   Garnet Chan, S. Sharma, J. Yang, R. Olivares  : DMRG
   Ulf Ekstrom                                   : XCFun DFT Library
   Mihaly Kallay                                 : mrcc  (arbitrary order and MRCC methods)
   Andreas Klamt, Michael Diedenhofen            : otool_cosmo (COSMO solvation model)
   Jiri Pittner, Ondrej Demel                    : Mk-CCSD
   Frank Weinhold                                : gennbo (NPA and NBO analysis)
   Christopher J. Cramer and Donald G. Truhlar   : smd solvation model
   Lars Goerigk                                  : TD-DFT with DH, B97 family of functionals
   V. Asgeirsson, H. Jonsson                     : NEB implementation
   FAccTs GmbH                                   : IRC, NEB, NEB-TS, Multilevel, MM, QM/MM, CI optimization
   S Lehtola, MJT Oliveira, MAL Marques          : LibXC Library


 Your calculation uses the libint2 library for the computation of 2-el integrals
 For citations please refer to: http://libint.valeyev.net

 Your ORCA version has been built with support for libXC version: 4.2.3
 For citations please refer to: https://tddft.org/programs/libxc/

 This ORCA versions uses:
   CBLAS   interface :  Fast vector & matrix operations
   LAPACKE interface :  Fast linear algebra routines
   SCALAPACK package :  Parallel linear algebra routines


Your calculation utilizes the atom-pairwise dispersion correction
with the Becke-Johnson damping scheme (D3BJ)
Cite in your paper:
S.Grimme, S.Ehrlich, L.Goerigk, J Comput Chem, (2011), 32, 1456–1465 
S.Grimme, J.Antony, S.Ehrlich and H.Krieg, J.Chem.Phys., 132, (2010), 154104 
   

----- Orbital basis set information -----
Your calculation utilizes the basis: def2-SV(P)
   F. Weigend and R. Ahlrichs, Phys. Chem. Chem. Phys. 7, 3297 (2005).

----- AuxJ basis set information -----
Your calculation utilizes the auxiliary basis: def2/J
   F. Weigend, Phys. Chem. Chem. Phys. 8, 1057 (2006).

================================================================================
                                        WARNINGS
                       Please study these warnings very carefully!
================================================================================


WARNING: Geometry Optimization
  ===> : Switching off AutoStart
         For restart on a previous wavefunction, please use MOREAD

INFO   : the flag for use of LIBINT has been found!

================================================================================
                                       INPUT FILE
================================================================================
NAME = orca5.inp
|  1> ! UKS B3LYP def2-SV(P) def2/J D3BJ Opt
|  2> %scf Convergence VeryTight
|  3> SmearTemp 2000
|  4> maxiter 500
|  5> end
|  6> *xyz 0 2
|  7> C -0.013801 0.075577 0.399739
|  8> C -0.348355 1.386235 -0.271444
|  9> C 1.360581 -0.419639 0.068919
| 10> C -1.012493 -0.978134 -0.044105
| 11> H -0.1868 0.210216 1.494906
| 12> H -1.452313 1.513981 -0.137465
| 13> H -0.107453 1.367219 -1.359916
| 14> H 1.359594 -1.460325 -0.340495
| 15> H 1.93323 -0.481087 1.029512
| 16> H 1.920686 0.247782 -0.614047
| 17> H -0.586168 -1.454504 -0.942256
| 18> H -1.091176 -1.764691 0.733695
| 19> H -1.960313 -0.467155 -0.259917
| 20> *
| 21> 
| 22>                          ****END OF INPUT****
================================================================================

                       *****************************
                       * Geometry Optimization Run *
                       *****************************

Geometry optimization settings:
Update method            Update   .... BFGS
Choice of coordinates    CoordSys .... Z-matrix Internals
Initial Hessian          InHess   .... Almoef's Model

Convergence Tolerances:
Energy Change            TolE     ....  5.0000e-06 Eh
Max. Gradient            TolMAXG  ....  3.0000e-04 Eh/bohr
RMS Gradient             TolRMSG  ....  1.0000e-04 Eh/bohr
Max. Displacement        TolMAXD  ....  4.0000e-03 bohr
RMS Displacement         TolRMSD  ....  2.0000e-03 bohr
Strict Convergence                ....  False
------------------------------------------------------------------------------
                        ORCA OPTIMIZATION COORDINATE SETUP
------------------------------------------------------------------------------

The optimization will be done in new redundant internal coordinates
Making redundant internal coordinates   ...  (new redundants) done
Evaluating the initial hessian          ...  (Almloef) done
Evaluating the coordinates              ...  done
Calculating the B-matrix                .... done
Calculating the G-matrix                .... done
Diagonalizing the G-matrix              .... done
The first mode is                       ....   24
The number of degrees of freedom        ....   33

    -----------------------------------------------------------------
                    Redundant Internal Coordinates


    -----------------------------------------------------------------
         Definition                    Initial Value    Approx d2E/dq
    -----------------------------------------------------------------
      1. B(C   1,C   0)                  1.5100         0.401988   
      2. B(C   2,C   0)                  1.4979         0.420381   
      3. B(C   3,C   0)                  1.5181         0.390239   
      4. B(H   4,C   0)                  1.1169         0.326226   
      5. B(H   5,C   1)                  1.1194         0.323268   
      6. B(H   6,C   1)                  1.1150         0.328533   
      7. B(H   7,C   2)                  1.1183         0.324515   
      8. B(H   8,C   2)                  1.1200         0.322500   
      9. B(H   9,C   2)                  1.1071         0.338208   
     10. B(H  10,C   3)                  1.1024         0.344024   
     11. B(H  11,C   3)                  1.1090         0.335848   
     12. B(H  12,C   3)                  1.0982         0.349418   
     13. A(C   1,C   0,H   4)          107.2706         0.322965   
     14. A(C   2,C   0,H   4)          113.4871         0.325346   
     15. A(C   1,C   0,C   2)          113.0839         0.375495   
     16. A(C   1,C   0,C   3)          109.0713         0.370710   
     17. A(C   2,C   0,C   3)          108.0331         0.373577   
     18. A(C   3,C   0,H   4)          105.5722         0.321400   
     19. A(H   5,C   1,H   6)          109.3828         0.281922   
     20. A(C   0,C   1,H   6)          111.7922         0.323339   
     21. A(C   0,C   1,H   5)          105.3287         0.322483   
     22. A(H   7,C   2,H   9)          109.6099         0.283363   
     23. A(C   0,C   2,H   9)          113.6506         0.327284   
     24. A(H   7,C   2,H   8)          105.2708         0.281282   
     25. A(C   0,C   2,H   8)          107.3285         0.324733   
     26. A(H   8,C   2,H   9)          107.6678         0.283089   
     27. A(C   0,C   2,H   7)          112.8120         0.325065   
     28. A(H  11,C   3,H  12)          113.9917         0.286330   
     29. A(H  10,C   3,H  12)          112.0067         0.287407   
     30. A(C   0,C   3,H  12)          107.5940         0.325040   
     31. A(H  10,C   3,H  11)          106.9994         0.285636   
     32. A(C   0,C   3,H  11)          109.5064         0.322934   
     33. A(C   0,C   3,H  10)          106.4819         0.324211   
     34. D(H   6,C   1,C   0,C   3)    -71.6403         0.011987   
     35. D(H   6,C   1,C   0,H   4)    174.4724         0.011987   
     36. D(H   6,C   1,C   0,C   2)     48.5849         0.011987   
     37. D(H   5,C   1,C   0,H   4)    -66.8294         0.011987   
     38. D(H   5,C   1,C   0,C   2)    167.2832         0.011987   
     39. D(H   5,C   1,C   0,C   3)     47.0579         0.011987   
     40. D(H   7,C   2,C   0,C   1)   -125.5291         0.013982   
     41. D(H   9,C   2,C   0,C   1)      0.0396         0.013982   
     42. D(H   8,C   2,C   0,H   4)     -3.5170         0.013982   
     43. D(H   8,C   2,C   0,C   1)    118.9684         0.013982   
     44. D(H   7,C   2,C   0,H   4)    111.9855         0.013982   
     45. D(H   7,C   2,C   0,C   3)     -4.7129         0.013982   
     46. D(H   9,C   2,C   0,C   3)    120.8558         0.013982   
     47. D(H   9,C   2,C   0,H   4)   -122.4458         0.013982   
     48. D(H   8,C   2,C   0,C   3)   -120.2154         0.013982   
     49. D(H  12,C   3,C   0,H   4)     85.1129         0.012106   
     50. D(H  12,C   3,C   0,C   1)    -29.8759         0.012106   
     51. D(H  11,C   3,C   0,H   4)    -39.2799         0.012106   
     52. D(H  11,C   3,C   0,C   2)     82.4443         0.012106   
     53. D(H  11,C   3,C   0,C   1)   -154.2688         0.012106   
     54. D(H  10,C   3,C   0,H   4)   -154.6374         0.012106   
     55. D(H  12,C   3,C   0,C   2)   -153.1629         0.012106   
     56. D(H  10,C   3,C   0,C   2)    -32.9132         0.012106   
     57. D(H  10,C   3,C   0,C   1)     90.3737         0.012106   
    -----------------------------------------------------------------

Number of atoms                         .... 13
Number of degrees of freedom            .... 57

Time needed for optimization step       :     1.29 sec

         *************************************************************
         *                GEOMETRY OPTIMIZATION CYCLE   1            *
         *************************************************************
---------------------------------
CARTESIAN COORDINATES (ANGSTROEM)
---------------------------------
  C     -0.013801    0.075577    0.399739
  C     -0.348355    1.386235   -0.271444
  C      1.360581   -0.419639    0.068919
  C     -1.012493   -0.978134   -0.044105
  H     -0.186800    0.210216    1.494906
  H     -1.452313    1.513981   -0.137465
  H     -0.107453    1.367219   -1.359916
  H      1.359594   -1.460325   -0.340495
  H      1.933230   -0.481087    1.029512
  H      1.920686    0.247782   -0.614047
  H     -0.586168   -1.454504   -0.942256
  H     -1.091176   -1.764691    0.733695
  H     -1.960313   -0.467155   -0.259917

----------------------------
CARTESIAN COORDINATES (A.U.)
----------------------------
  NO LB      ZA    FRAG     MASS         X           Y           Z
   0 C     6.0000    0    12.011   -0.026080    0.142820    0.755397
   1 C     6.0000    0    12.011   -0.658296    2.619605   -0.512955
   2 C     6.0000    0    12.011    2.571125   -0.793003    0.130238
   3 C     6.0000    0    12.011   -1.913334   -1.848405   -0.083346
   4 H     1.0000    0     1.008   -0.353001    0.397251    2.824963
   5 H     1.0000    0     1.008   -2.744474    2.861009   -0.259771
   6 H     1.0000    0     1.008   -0.203057    2.583669   -2.569869
   7 H     1.0000    0     1.008    2.569260   -2.759614   -0.643442
   8 H     1.0000    0     1.008    3.653275   -0.909123    1.945496
   9 H     1.0000    0     1.008    3.629571    0.468240   -1.160381
  10 H     1.0000    0     1.008   -1.107697   -2.748614   -1.780606
  11 H     1.0000    0     1.008   -2.062024   -3.334783    1.386483
  12 H     1.0000    0     1.008   -3.704455   -0.882795   -0.491172

--------------------------------
INTERNAL COORDINATES (ANGSTROEM)
--------------------------------
 C      0   0   0     0.000000000000     0.00000000     0.00000000
 C      1   0   0     1.510045493145     0.00000000     0.00000000
 C      1   2   0     1.497867364282   113.08392284     0.00000000
 C      1   2   3     1.518120574500   109.07125986   239.77476433
 H      1   2   3     1.116891701201   107.27063048   125.88746310
 H      2   1   3     1.119371555258   105.32865410   167.28318449
 H      2   1   3     1.114973845722   111.79223283    48.58492715
 H      3   1   2     1.118323811855   112.81196778   234.47090611
 H      3   1   2     1.120018591611   107.32852447   118.96839286
 H      3   1   2     1.107073149987   113.65058066     0.03958549
 H      4   1   2     1.102432130032   106.48188855    90.37374681
 H      4   1   2     1.108979606998   109.50637301   205.73123915
 H      4   1   2     1.098197209150   107.59398317   330.12405024

---------------------------
INTERNAL COORDINATES (A.U.)
---------------------------
 C      0   0   0     0.000000000000     0.00000000     0.00000000
 C      1   0   0     2.853572431807     0.00000000     0.00000000
 C      1   2   0     2.830559103431   113.08392284     0.00000000
 C      1   2   3     2.868832124077   109.07125986   239.77476433
 H      1   2   3     2.110619436519   107.27063048   125.88746310
 H      2   1   3     2.115305681539   105.32865410   167.28318449
 H      2   1   3     2.106995214899   111.79223283    48.58492715
 H      3   1   2     2.113325733448   112.81196778   234.47090611
 H      3   1   2     2.116528403045   107.32852447   118.96839286
 H      3   1   2     2.092065063693   113.65058066     0.03958549
 H      4   1   2     2.083294806995   106.48188855    90.37374681
 H      4   1   2     2.095667745330   109.50637301   205.73123915
 H      4   1   2     2.075291966330   107.59398317   330.12405024

---------------------
BASIS SET INFORMATION
---------------------
There are 2 groups of distinct atoms

 Group   1 Type C   : 7s4p1d contracted to 3s2p1d pattern {511/31/1}
 Group   2 Type H   : 4s contracted to 2s pattern {31}

Atom   0C    basis set group =>   1
Atom   1C    basis set group =>   1
Atom   2C    basis set group =>   1
Atom   3C    basis set group =>   1
Atom   4H    basis set group =>   2
Atom   5H    basis set group =>   2
Atom   6H    basis set group =>   2
Atom   7H    basis set group =>   2
Atom   8H    basis set group =>   2
Atom   9H    basis set group =>   2
Atom  10H    basis set group =>   2
Atom  11H    basis set group =>   2
Atom  12H    basis set group =>   2
---------------------------------
AUXILIARY/J BASIS SET INFORMATION
---------------------------------
There are 2 groups of distinct atoms

 Group   1 Type C   : 12s5p4d2f1g contracted to 6s4p3d1f1g pattern {711111/2111/211/2/1}
 Group   2 Type H   : 5s2p1d contracted to 3s1p1d pattern {311/2/1}

Atom   0C    basis set group =>   1
Atom   1C    basis set group =>   1
Atom   2C    basis set group =>   1
Atom   3C    basis set group =>   1
Atom   4H    basis set group =>   2
Atom   5H    basis set group =>   2
Atom   6H    basis set group =>   2
Atom   7H    basis set group =>   2
Atom   8H    basis set group =>   2
Atom   9H    basis set group =>   2
Atom  10H    basis set group =>   2
Atom  11H    basis set group =>   2
Atom  12H    basis set group =>   2
------------------------------------------------------------------------------
                           ORCA GTO INTEGRAL CALCULATION
------------------------------------------------------------------------------

                         BASIS SET STATISTICS AND STARTUP INFO

 # of primitive gaussian shells          ...   84
 # of primitive gaussian functions       ...  132
 # of contracted shells                  ...   42
 # of contracted basis functions         ...   74
 Highest angular momentum                ...    2
 Maximum contraction depth               ...    5
 Integral package used                   ... LIBINT
 Integral threshhold            Thresh   ...  1.000e-12
 Primitive cut-off              TCut     ...  1.000e-14


------------------------------ INTEGRAL EVALUATION ----------------------------


 * One electron integrals 
 Pre-screening matrix                    ... done
 Shell pair data                         ... done (   0.000 sec)

-------------------------------------------------------------------------------
                                 ORCA SCF
-------------------------------------------------------------------------------

------------
SCF SETTINGS
------------
Hamiltonian:
 Density Functional     Method          .... DFT(GTOs)
 Exchange Functional    Exchange        .... B88
   X-Alpha parameter    XAlpha          ....  0.666667
   Becke's b parameter  XBeta           ....  0.004200
 Correlation Functional Correlation     .... LYP
 LDA part of GGA corr.  LDAOpt          .... VWN-5
 Gradients option       PostSCFGGA      .... off
 Hybrid DFT is turned on
   Fraction HF Exchange ScalHFX         ....  0.200000
   Scaling of DF-GGA-X  ScalDFX         ....  0.720000
   Scaling of DF-GGA-C  ScalDFC         ....  0.810000
   Scaling of DF-LDA-C  ScalLDAC        ....  1.000000
   Perturbative correction              ....  0.000000
   Density functional embedding theory  .... OFF
   NL short-range parameter             ....  4.800000


General Settings:
 Integral files         IntName         .... orca5
 Hartree-Fock type      HFTyp           .... UHF
 Total Charge           Charge          ....    0
 Multiplicity           Mult            ....    2
 Number of Electrons    NEL             ....   33
 Basis Dimension        Dim             ....   74
 Nuclear Repulsion      ENuc            ....    127.7350870457 Eh

Convergence Acceleration:
 DIIS                   CNVDIIS         .... on
   Start iteration      DIISMaxIt       ....    12
   Startup error        DIISStart       ....  0.200000
   # of expansion vecs  DIISMaxEq       ....     5
   Bias factor          DIISBfac        ....   1.050
   Max. coefficient     DIISMaxC        ....  10.000
 Newton-Raphson         CNVNR           .... off
 SOSCF                  CNVSOSCF        .... off
 Level Shifting         CNVShift        .... on
   Level shift para.    LevelShift      ....    0.2500
   Turn off err/grad.   ShiftErr        ....    0.0010
 Zerner damping         CNVZerner       .... off
 Static damping         CNVDamp         .... on
   Fraction old density DampFac         ....    0.7000
   Max. Damping (<1)    DampMax         ....    0.9800
   Min. Damping (>=0)   DampMin         ....    0.0000
   Turn off err/grad.   DampErr         ....    0.1000
 Fernandez-Rico         CNVRico         .... off

SCF Procedure:
 Maximum # iterations   MaxIter         ....   500
 SCF integral mode      SCFMode         .... Direct
   Integral package                     .... LIBINT
 Reset frequency        DirectResetFreq ....    20
 Integral Threshold     Thresh          ....  1.000e-12 Eh
 Primitive CutOff       TCut            ....  1.000e-14 Eh

Convergence Tolerance:
 Convergence Check Mode ConvCheckMode   .... Total+1el-Energy
 Convergence forced     ConvForced      .... 0
 Energy Change          TolE            ....  1.000e-09 Eh
 1-El. energy change                    ....  1.000e-06 Eh
 DIIS Error             TolErr          ....  1.000e-08


Diagonalization of the overlap matrix:
Smallest eigenvalue                        ... 1.744e-03
Time for diagonalization                   ...    0.001 sec
Threshold for overlap eigenvalues          ... 1.000e-08
Number of eigenvalues below threshold      ... 0
Time for construction of square roots      ...    5.390 sec
Total time needed                          ...    5.391 sec

-------------------
DFT GRID GENERATION
-------------------

General Integration Accuracy     IntAcc      ...  4.340
Radial Grid Type                 RadialGrid  ... Gauss-Chebyshev
Angular Grid (max. acc.)         AngularGrid ... Lebedev-110
Angular grid pruning method      GridPruning ... 3 (G Style)
Weight generation scheme         WeightScheme... Becke
Basis function cutoff            BFCut       ...    1.0000e-12
Integration weight cutoff        WCut        ...    1.0000e-14
Grids for H and He will be reduced by one unit

# of grid points (after initial pruning)     ...  13770 (   0.0 sec)
# of grid points (after weights+screening)   ...  12855 (   0.0 sec)
nearest neighbour list constructed           ...    0.0 sec
Grid point re-assignment to atoms done       ...    0.0 sec
Grid point division into batches done        ...    0.0 sec
Reduced shell lists constructed in    0.1 sec

Total number of grid points                  ...    12855
Total number of batches                      ...      208
Average number of points per batch           ...       61
Average number of grid points per atom       ...      989
Average number of shells per batch           ...    37.40 (89.05%)
Average number of basis functions per batch  ...    66.62 (90.02%)
Average number of large shells per batch     ...    32.98 (88.18%)
Average number of large basis fcns per batch ...    58.55 (87.89%)
Maximum spatial batch extension              ...  20.47, 22.44, 19.41 au
Average spatial batch extension              ...   4.13,  3.89,  3.94 au

Time for grid setup =    2.246 sec

------------------------------
INITIAL GUESS: MODEL POTENTIAL
------------------------------
Loading Hartree-Fock densities                     ... done
Calculating cut-offs                               ... done
Setting up the integral package                    ... done
Initializing the effective Hamiltonian             ... done
Starting the Coulomb interaction                   ... done (   0.0 sec)
Reading the grid                                   ... done
Mapping shells                                     ... done
Starting the XC term evaluation                    ... done (   0.1 sec)
  promolecular density results
     # of electrons  =     32.996761272
     EX              =    -23.189719864
     EC              =     -1.033369862
     EX+EC           =    -24.223089727
Transforming the Hamiltonian                       ... done (   0.0 sec)
Diagonalizing the Hamiltonian                      ... done (   0.0 sec)
Back transforming the eigenvectors                 ... done (   0.0 sec)
Now organizing SCF variables                       ... done
                      ------------------
                      INITIAL GUESS DONE (   2.5 sec)
                      ------------------
--------------
SCF ITERATIONS
--------------
ITER       Energy         Delta-E        Max-DP      RMS-DP      [F,P]     Damp
               ***  Starting incremental Fock matrix formation  ***
  0   -157.3532451338   0.000000000000 0.04285336  0.00209116  0.1722605 0.7000
  1   -157.4217607485  -0.068515614664 0.02632479  0.00149853  0.0882976 0.7000
                               ***Turning on DIIS***
  2   -157.4492986623  -0.027537913801 0.03687060  0.00247713  0.0318430 0.0000
  3   -157.4870710385  -0.037772376256 0.01781806  0.00105149  0.0490865 0.0000
  4   -157.4992916475  -0.012220608966 0.00606041  0.00032718  0.0091782 0.0000
  5   -157.4999341355  -0.000642487995 0.00191420  0.00011536  0.0021455 0.0000
  6   -157.4999899322  -0.000055796718 0.00163866  0.00007926  0.0008554 0.0000
  7   -157.5000030949  -0.000013162729 0.00041400  0.00001593  0.0001480 0.0000
  8   -157.5000040919  -0.000000996939 0.00013396  0.00000479  0.0001020 0.0000
  9   -157.5000042075  -0.000000115568 0.00006722  0.00000212  0.0000553 0.0000
 10   -157.5000042331  -0.000000025641 0.00002151  0.00000078  0.0000093 0.0000
 11   -157.5000042375  -0.000000004381 0.00001126  0.00000047  0.0000044 0.0000
 12   -157.5000042387  -0.000000001267 0.00000359  0.00000012  0.0000022 0.0000
 13   -157.5000042389  -0.000000000154 0.00000413  0.00000015  0.0000009 0.0000
 14   -157.5000042390  -0.000000000121 0.00000134  0.00000005  0.0000003 0.0000
 15   -157.5000042390  -0.000000000009 0.00000085  0.00000003  0.0000002 0.0000
 16   -157.5000042390  -0.000000000001 0.00000018  0.00000001  0.0000002 0.0000
                 **** Energy Check signals convergence ****

 Fermi smearing  (ALPHA): E(HOMO(Eh)) = -0.318958 MUE = -0.086746 gap=   7.817 eV
 Fermi smearing   (BETA): E(HOMO(Eh)) = -0.313418 MUE = -0.189767 gap=   6.709 eV

N_FOD(alpha) =  0.000000
 N_FOD(beta) =  0.000000
       N_FOD =  0.000000

               *****************************************************
               *                     SUCCESS                       *
               *           SCF CONVERGED AFTER  17 CYCLES          *
               *****************************************************

Setting up the final grid:

General Integration Accuracy     IntAcc      ...  4.670
Radial Grid Type                 RadialGrid  ... Gauss-Chebyshev
Angular Grid (max. acc.)         AngularGrid ... Lebedev-302
Angular grid pruning method      GridPruning ... 3 (G Style)
Weight generation scheme         WeightScheme... Becke
Basis function cutoff            BFCut       ...    1.0000e-12
Integration weight cutoff        WCut        ...    1.0000e-14
Grids for H and He will be reduced by one unit

# of grid points (after initial pruning)     ...  55394 (   0.0 sec)
# of grid points (after weights+screening)   ...  51108 (   0.1 sec)
nearest neighbour list constructed           ...    0.0 sec
Grid point re-assignment to atoms done       ...    0.0 sec
Grid point division into batches done        ...    0.1 sec
Reduced shell lists constructed in    0.3 sec

Total number of grid points                  ...    51108
Total number of batches                      ...      806
Average number of points per batch           ...       63
Average number of grid points per atom       ...     3931
Average number of shells per batch           ...    35.20 (83.80%)
Average number of basis functions per batch  ...    62.61 (84.60%)
Average number of large shells per batch     ...    30.40 (86.37%)
Average number of large basis fcns per batch ...    53.60 (85.61%)
Maximum spatial batch extension              ...  22.25, 17.89, 19.09 au
Average spatial batch extension              ...   2.65,  2.59,  2.57 au

Final grid set up in    3.1 sec
Final integration                            ... done (  13.9 sec)
Change in XC energy                          ...     0.000036155
Integrated number of electrons               ...    33.000057206
Previous integrated no of electrons          ...    33.000196558

----------------
TOTAL SCF ENERGY
----------------

Total Energy       :         -157.49996808 Eh           -4285.79202 eV

Components:
Nuclear Repulsion  :          127.73508705 Eh            3475.84843 eV
Electronic Energy  :         -285.23505513 Eh           -7761.64044 eV
One Electron Energy:         -462.92922126 Eh          -12596.94453 eV
Two Electron Energy:          177.69416613 Eh            4835.30408 eV

Virial components:
Potential Energy   :         -313.40807024 Eh           -8528.26716 eV
Kinetic Energy     :          155.90810216 Eh            4242.47514 eV
Virial Ratio       :            2.01021028


DFT components:
N(Alpha)           :       17.000023264495 electrons
N(Beta)            :       16.000033941559 electrons
N(Total)           :       33.000057206054 electrons
E(X)               :      -18.886796888196 Eh       
E(C)               :       -1.221599017809 Eh       
E(XC)              :      -20.108395906005 Eh       
DFET-embed. en.    :        0.000000000000 Eh       

---------------
SCF CONVERGENCE
---------------

  Last Energy change         ...   -9.2086e-12  Tolerance :   1.0000e-09
  Last MAX-Density change    ...    1.4530e-07  Tolerance :   1.0000e-08
  Last RMS-Density change    ...    6.0317e-09  Tolerance :   1.0000e-09
  Last DIIS Error            ...    3.6636e-08  Tolerance :   1.0000e-08

             **** THE GBW FILE WAS UPDATED (orca5.gbw) ****
             **** DENSITY FILE WAS UPDATED (orca5.scfp) ****
             **** ENERGY FILE WAS UPDATED (orca5.en.tmp) ****
             **** THE GBW FILE WAS UPDATED (orca5.gbw) ****
             **** DENSITY FILE WAS UPDATED (orca5.scfp) ****
----------------
ORBITAL ENERGIES
----------------
                 SPIN UP ORBITALS
  NO   OCC          E(Eh)            E(eV) 
   0   1.0000     -10.189687      -277.2755 
   1   1.0000     -10.182163      -277.0708 
   2   1.0000     -10.171372      -276.7771 
   3   1.0000     -10.166279      -276.6385 
   4   1.0000      -0.807942       -21.9852 
   5   1.0000      -0.673808       -18.3352 
   6   1.0000      -0.664295       -18.0764 
   7   1.0000      -0.548826       -14.9343 
   8   1.0000      -0.463486       -12.6121 
   9   1.0000      -0.435511       -11.8509 
  10   1.0000      -0.424352       -11.5472 
  11   1.0000      -0.384925       -10.4743 
  12   1.0000      -0.382300       -10.4029 
  13   1.0000      -0.342571        -9.3218 
  14   1.0000      -0.331336        -9.0161 
  15   1.0000      -0.318958        -8.6793 
  16   1.0000      -0.230374        -6.2688 
  17   0.0000       0.056881         1.5478 
  18   0.0000       0.084706         2.3050 
  19   0.0000       0.104558         2.8452 
  20   0.0000       0.111874         3.0442 
  21   0.0000       0.117031         3.1846 
  22   0.0000       0.124576         3.3899 
  23   0.0000       0.152360         4.1459 
  24   0.0000       0.165227         4.4961 
  25   0.0000       0.190377         5.1804 
  26   0.0000       0.221824         6.0361 
  27   0.0000       0.253353         6.8941 
  28   0.0000       0.284685         7.7467 
  29   0.0000       0.409868        11.1531 
  30   0.0000       0.435228        11.8432 
  31   0.0000       0.441166        12.0047 
  32   0.0000       0.470659        12.8073 
  33   0.0000       0.489511        13.3203 
  34   0.0000       0.515457        14.0263 
  35   0.0000       0.564051        15.3486 
  36   0.0000       0.605123        16.4662 
  37   0.0000       0.617321        16.7982 
  38   0.0000       0.656219        17.8566 
  39   0.0000       0.663893        18.0654 
  40   0.0000       0.683305        18.5937 
  41   0.0000       0.684022        18.6132 
  42   0.0000       0.697941        18.9919 
  43   0.0000       0.704430        19.1685 
  44   0.0000       0.705846        19.2071 
  45   0.0000       0.716148        19.4874 
  46   0.0000       0.722532        19.6611 
  47   0.0000       0.735535        20.0149 
  48   0.0000       0.750858        20.4319 
  49   0.0000       0.761218        20.7138 
  50   0.0000       0.784598        21.3500 
  51   0.0000       0.876433        23.8490 
  52   0.0000       0.959165        26.1002 
  53   0.0000       1.108995        30.1773 
  54   0.0000       1.370937        37.3051 
  55   0.0000       1.424607        38.7655 
  56   0.0000       1.745050        47.4852 
  57   0.0000       1.773186        48.2508 
  58   0.0000       1.807050        49.1723 
  59   0.0000       1.865356        50.7589 
  60   0.0000       1.887185        51.3529 
  61   0.0000       1.920920        52.2709 
  62   0.0000       1.974903        53.7398 
  63   0.0000       2.038642        55.4743 
  64   0.0000       2.062115        56.1130 
  65   0.0000       2.106723        57.3268 
  66   0.0000       2.150747        58.5248 
  67   0.0000       2.160905        58.8012 
  68   0.0000       2.202396        59.9302 
  69   0.0000       2.406697        65.4896 
  70   0.0000       2.437361        66.3240 
  71   0.0000       2.467453        67.1428 
  72   0.0000       2.687335        73.1261 
  73   0.0000       2.707560        73.6765 

                 SPIN DOWN ORBITALS
  NO   OCC          E(Eh)            E(eV) 
   0   1.0000     -10.182447      -277.0785 
   1   1.0000     -10.174386      -276.8591 
   2   1.0000     -10.169929      -276.7378 
   3   1.0000     -10.166210      -276.6366 
   4   1.0000      -0.801390       -21.8069 
   5   1.0000      -0.671758       -18.2795 
   6   1.0000      -0.643536       -17.5115 
   7   1.0000      -0.542165       -14.7531 
   8   1.0000      -0.460285       -12.5250 
   9   1.0000      -0.430535       -11.7154 
  10   1.0000      -0.417302       -11.3554 
  11   1.0000      -0.384295       -10.4572 
  12   1.0000      -0.373161       -10.1542 
  13   1.0000      -0.335685        -9.1345 
  14   1.0000      -0.328295        -8.9334 
  15   1.0000      -0.313418        -8.5285 
  16   0.0000      -0.066863        -1.8194 
  17   0.0000       0.058912         1.6031 
  18   0.0000       0.086628         2.3573 
  19   0.0000       0.107649         2.9293 
  20   0.0000       0.114126         3.1055 
  21   0.0000       0.121997         3.3197 
  22   0.0000       0.126981         3.4553 
  23   0.0000       0.154473         4.2034 
  24   0.0000       0.167886         4.5684 
  25   0.0000       0.194942         5.3046 
  26   0.0000       0.225204         6.1281 
  27   0.0000       0.255340         6.9482 
  28   0.0000       0.293955         7.9989 
  29   0.0000       0.412821        11.2334 
  30   0.0000       0.443864        12.0781 
  31   0.0000       0.446328        12.1452 
  32   0.0000       0.475264        12.9326 
  33   0.0000       0.506821        13.7913 
  34   0.0000       0.547499        14.8982 
  35   0.0000       0.580883        15.8066 
  36   0.0000       0.611798        16.6479 
  37   0.0000       0.624627        16.9970 
  38   0.0000       0.659611        17.9489 
  39   0.0000       0.672048        18.2874 
  40   0.0000       0.687470        18.7070 
  41   0.0000       0.691053        18.8045 
  42   0.0000       0.699247        19.0275 
  43   0.0000       0.708240        19.2722 
  44   0.0000       0.710267        19.3274 
  45   0.0000       0.720020        19.5927 
  46   0.0000       0.727566        19.7981 
  47   0.0000       0.740629        20.1535 
  48   0.0000       0.753895        20.5145 
  49   0.0000       0.764188        20.7946 
  50   0.0000       0.791272        21.5316 
  51   0.0000       0.882430        24.0121 
  52   0.0000       0.961968        26.1765 
  53   0.0000       1.111360        30.2417 
  54   0.0000       1.381142        37.5828 
  55   0.0000       1.433219        38.9999 
  56   0.0000       1.767359        48.0923 
  57   0.0000       1.797549        48.9138 
  58   0.0000       1.811637        49.2971 
  59   0.0000       1.898186        51.6523 
  60   0.0000       1.907540        51.9068 
  61   0.0000       1.941516        52.8313 
  62   0.0000       1.979920        53.8764 
  63   0.0000       2.054650        55.9099 
  64   0.0000       2.084866        56.7321 
  65   0.0000       2.109975        57.4153 
  66   0.0000       2.153682        58.6047 
  67   0.0000       2.175129        59.1883 
  68   0.0000       2.212254        60.1985 
  69   0.0000       2.417983        65.7967 
  70   0.0000       2.448887        66.6376 
  71   0.0000       2.471368        67.2493 
  72   0.0000       2.692225        73.2592 
  73   0.0000       2.715617        73.8957 

                    ********************************
                    * MULLIKEN POPULATION ANALYSIS *
                    ********************************

------------------------------------------
FOD BASED MULLIKEN REDUCED ORBITAL CHARGES
------------------------------------------
  0 C s       :    -0.000000  s :    -0.000000
      pz      :     0.000000  p :     0.000000
      px      :     0.000000
      py      :     0.000000
      dz2     :     0.000000  d :     0.000000
      dxz     :     0.000000
      dyz     :     0.000000
      dx2y2   :     0.000000
      dxy     :     0.000000
  1 C s       :     0.000000  s :     0.000000
      pz      :     0.000000  p :     0.000000
      px      :     0.000000
      py      :     0.000000
      dz2     :     0.000000  d :     0.000000
      dxz     :    -0.000000
      dyz     :     0.000000
      dx2y2   :     0.000000
      dxy     :    -0.000000
  2 C s       :    -0.000000  s :    -0.000000
      pz      :     0.000000  p :     0.000000
      px      :     0.000000
      py      :     0.000000
      dz2     :     0.000000  d :     0.000000
      dxz     :     0.000000
      dyz     :     0.000000
      dx2y2   :     0.000000
      dxy     :     0.000000
  3 C s       :    -0.000000  s :    -0.000000
      pz      :     0.000000  p :     0.000000
      px      :     0.000000
      py      :     0.000000
      dz2     :     0.000000  d :     0.000000
      dxz     :     0.000000
      dyz     :     0.000000
      dx2y2   :     0.000000
      dxy     :     0.000000
  4 H s       :     0.000000  s :     0.000000
  5 H s       :     0.000000  s :     0.000000
  6 H s       :     0.000000  s :     0.000000
  7 H s       :     0.000000  s :     0.000000
  8 H s       :     0.000000  s :     0.000000
  9 H s       :     0.000000  s :     0.000000
 10 H s       :     0.000000  s :     0.000000
 11 H s       :     0.000000  s :     0.000000
 12 H s       :     0.000000  s :     0.000000


                     *******************************
                     * LOEWDIN POPULATION ANALYSIS *
                     *******************************

-------------------------------------------
LOEWDIN ATOMIC CHARGES AND SPIN POPULATIONS
-------------------------------------------
   0 C :   -0.179907    0.002006
   1 C :   -0.203142    0.945022
   2 C :   -0.309635    0.002561
   3 C :   -0.301816    0.048435
   4 H :    0.111972    0.015408
   5 H :    0.101073   -0.012098
   6 H :    0.104688   -0.009921
   7 H :    0.109382   -0.000933
   8 H :    0.115175   -0.000840
   9 H :    0.115095   -0.000352
  10 H :    0.110739    0.000174
  11 H :    0.116055    0.008845
  12 H :    0.110321    0.001695

----------------------------------------------------
LOEWDIN REDUCED ORBITAL CHARGES AND SPIN POPULATIONS
----------------------------------------------------
CHARGE
  0 C s       :     2.871875  s :     2.871875
      pz      :     1.077710  p :     3.194445
      px      :     1.061509
      py      :     1.055225
      dz2     :     0.029841  d :     0.113587
      dxz     :     0.013771
      dyz     :     0.016512
      dx2y2   :     0.025381
      dxy     :     0.028082
  1 C s       :     3.059362  s :     3.059362
      pz      :     1.046674  p :     3.081884
      px      :     1.039891
      py      :     0.995319
      dz2     :     0.023637  d :     0.061896
      dxz     :     0.003173
      dyz     :     0.008191
      dx2y2   :     0.021204
      dxy     :     0.005691
  2 C s       :     2.952850  s :     2.952850
      pz      :     1.113807  p :     3.282215
      px      :     1.072259
      py      :     1.096150
      dz2     :     0.009519  d :     0.074570
      dxz     :     0.020318
      dyz     :     0.012297
      dx2y2   :     0.019363
      dxy     :     0.013072
  3 C s       :     2.959200  s :     2.959200
      pz      :     1.110353  p :     3.266604
      px      :     1.086294
      py      :     1.069957
      dz2     :     0.011670  d :     0.076013
      dxz     :     0.009005
      dyz     :     0.022898
      dx2y2   :     0.013234
      dxy     :     0.019206
  4 H s       :     0.888028  s :     0.888028
  5 H s       :     0.898927  s :     0.898927
  6 H s       :     0.895312  s :     0.895312
  7 H s       :     0.890618  s :     0.890618
  8 H s       :     0.884825  s :     0.884825
  9 H s       :     0.884905  s :     0.884905
 10 H s       :     0.889261  s :     0.889261
 11 H s       :     0.883945  s :     0.883945
 12 H s       :     0.889679  s :     0.889679

SPIN
  0 C s       :    -0.002855  s :    -0.002855
      pz      :    -0.006764  p :    -0.007085
      px      :    -0.003034
      py      :     0.002713
      dz2     :     0.004276  d :     0.011946
      dxz     :     0.000204
      dyz     :     0.001611
      dx2y2   :     0.001674
      dxy     :     0.004181
  1 C s       :     0.104876  s :     0.104876
      pz      :     0.163153  p :     0.843918
      px      :     0.207282
      py      :     0.473483
      dz2     :    -0.001256  d :    -0.003772
      dxz     :    -0.000123
      dyz     :    -0.000557
      dx2y2   :    -0.001729
      dxy     :    -0.000108
  2 C s       :     0.000417  s :     0.000417
      pz      :     0.000770  p :     0.002424
      px      :     0.000556
      py      :     0.001099
      dz2     :     0.000032  d :    -0.000280
      dxz     :    -0.000192
      dyz     :    -0.000040
      dx2y2   :    -0.000114
      dxy     :     0.000034
  3 C s       :     0.015500  s :     0.015500
      pz      :     0.002204  p :     0.032084
      px      :     0.006844
      py      :     0.023036
      dz2     :    -0.000025  d :     0.000851
      dxz     :     0.000042
      dyz     :     0.000168
      dx2y2   :     0.000667
      dxy     :    -0.000001
  4 H s       :     0.015408  s :     0.015408
  5 H s       :    -0.012098  s :    -0.012098
  6 H s       :    -0.009921  s :    -0.009921
  7 H s       :    -0.000933  s :    -0.000933
  8 H s       :    -0.000840  s :    -0.000840
  9 H s       :    -0.000352  s :    -0.000352
 10 H s       :     0.000174  s :     0.000174
 11 H s       :     0.008845  s :     0.008845
 12 H s       :     0.001695  s :     0.001695


                      *****************************
                      * MAYER POPULATION ANALYSIS *
                      *****************************

  NA   - Mulliken gross atomic population
  ZA   - Total nuclear charge
  QA   - Mulliken gross atomic charge
  VA   - Mayer's total valence
  BVA  - Mayer's bonded valence
  FA   - Mayer's free valence

  ATOM       NA         ZA         QA         VA         BVA        FA
  0 C      6.1482     6.0000    -0.1482     4.2049     4.2022     0.0027
  1 C      6.1832     6.0000    -0.1832     3.8894     3.0397     0.8497
  2 C      6.2346     6.0000    -0.2346     3.9263     3.9262     0.0000
  3 C      6.2429     6.0000    -0.2429     3.9552     3.9533     0.0018
  4 H      0.9208     1.0000     0.0792     0.9394     0.9391     0.0003
  5 H      0.9139     1.0000     0.0861     0.9535     0.9521     0.0014
  6 H      0.9114     1.0000     0.0886     0.9548     0.9538     0.0009
  7 H      0.9094     1.0000     0.0906     0.9643     0.9643     0.0000
  8 H      0.9109     1.0000     0.0891     0.9535     0.9535     0.0000
  9 H      0.9023     1.0000     0.0977     0.9662     0.9662     0.0000
 10 H      0.9098     1.0000     0.0902     0.9649     0.9649     0.0000
 11 H      0.8989     1.0000     0.1011     0.9519     0.9516     0.0003
 12 H      0.9137     1.0000     0.0863     0.9720     0.9720     0.0000

  Mayer bond orders larger than 0.100000
B(  0-C ,  1-C ) :   1.1100 B(  0-C ,  2-C ) :   1.0737 B(  0-C ,  3-C ) :   1.0779 
B(  0-C ,  4-H ) :   0.9198 B(  1-C ,  5-H ) :   0.9430 B(  1-C ,  6-H ) :   0.9435 
B(  2-C ,  7-H ) :   0.9597 B(  2-C ,  8-H ) :   0.9570 B(  2-C ,  9-H ) :   0.9592 
B(  3-C , 10-H ) :   0.9566 B(  3-C , 11-H ) :   0.9507 B(  3-C , 12-H ) :   0.9558 


-------
TIMINGS
-------

Total SCF time: 0 days 0 hours 7 min 17 sec 

Total time                  ....     437.542 sec
Sum of individual times     ....     363.542 sec  ( 83.1%)

Fock matrix formation       ....     305.659 sec  ( 69.9%)
  XC integration            ....     140.541 sec  ( 46.0% of F)
    Basis function eval.    ....       0.883 sec  (  0.6% of XC)
    Density eval.           ....       0.615 sec  (  0.4% of XC)
    XC-Functional eval.     ....       0.370 sec  (  0.3% of XC)
    XC-Potential eval.      ....       0.929 sec  (  0.7% of XC)
Diagonalization             ....       6.998 sec  (  1.6%)
Density matrix formation    ....      25.894 sec  (  5.9%)
Population analysis         ....      12.892 sec  (  2.9%)
Initial guess               ....       0.240 sec  (  0.1%)
Orbital Transformation      ....       0.000 sec  (  0.0%)
Orbital Orthonormalization  ....       0.000 sec  (  0.0%)
DIIS solution               ....       6.495 sec  (  1.5%)
Grid generation             ....       5.365 sec  (  1.2%)


-------------------------------------------------------------------------------
                          DFT DISPERSION CORRECTION                            
                                                                               
                              DFTD3 V3.1  Rev 1                                
                          USING Becke-Johnson damping                          
-------------------------------------------------------------------------------
The B3LYP functional is recognized
Active option DFTDOPT                   ...         4   

molecular C6(AA) [au] = 1132.222729 


            DFT-D V3
 parameters
 s6 scaling factor         :     1.0000 
 a1 scaling factor         :     0.3981 
 s8 scaling factor         :     1.9889 
 a2 scaling factor         :     4.4211 
 ad hoc parameters k1-k3   :    16.0000     1.3333    -4.0000 

 Edisp/kcal,au: -9.309845423615  -0.014836181469 
 E6   /kcal   :  -4.617514881 
 E8   /kcal   :  -4.692330543 
 % E8         :  50.401809364 

-------------------------   ----------------
Dispersion correction           -0.014836181
-------------------------   ----------------


-------------------------   --------------------
FINAL SINGLE POINT ENERGY      -157.514804265167
-------------------------   --------------------

------------------------------------------------------------------------------
                         ORCA SCF GRADIENT CALCULATION
------------------------------------------------------------------------------

Gradient of the Kohn-Sham DFT energy:
Kohn-Sham wavefunction type      ... UKS
Hartree-Fock exchange scaling    ...    0.200
Number of operators              ...    2
Number of atoms                  ...   13
Basis set dimensions             ...   74
Integral neglect threshold       ... 1.0e-12
Integral primitive cutoff        ... 1.0e-14

Nuclear repulsion gradient       ... done
One Electron Gradient            ... done
Pre-screening matrix             ... done
Starting the two electron gradient:
Two electron gradient done
Exchange-correlation gradient    ... done
Dispersion correction            ... done

------------------
CARTESIAN GRADIENT
------------------

   1   C   :    0.004855012   -0.019035152   -0.008185903
   2   C   :    0.030360419    0.029937568    0.016111397
   3   C   :   -0.036437919    0.012890455   -0.023639216
   4   C   :    0.001776615    0.004966089    0.002698191
   5   H   :   -0.007312954   -0.000400982    0.003808446
   6   H   :   -0.011022062   -0.020709565   -0.002092824
   7   H   :   -0.006042731   -0.011307903   -0.007120056
   8   H   :   -0.001527402   -0.010103691   -0.000690841
   9   H   :   -0.004268499   -0.000267657    0.011005438
  10   H   :    0.001458870    0.002451471   -0.000275613
  11   H   :    0.011488144    0.000730936    0.005488035
  12   H   :    0.006495368   -0.001355428    0.003072867
  13   H   :    0.010177141    0.012203858   -0.000179922

Difference to translation invariance:
           :    0.0000000000   -0.0000000000   -0.0000000000

Norm of the cartesian gradient     ...    0.0785966887
RMS gradient                       ...    0.0125855427
MAX gradient                       ...    0.0364379190

-------
TIMINGS
-------

Total SCF gradient time            ...        4.130 sec

One electron gradient       ....       0.027 sec  (  0.6%)
Prescreening matrices       ....       0.026 sec  (  0.6%)
Two electron gradient       ....       1.361 sec  ( 32.9%)
XC gradient                 ....       2.367 sec  ( 57.3%)
------------------------------------------------------------------------------
                         ORCA GEOMETRY RELAXATION STEP
------------------------------------------------------------------------------

Reading the OPT-File                    .... done
Getting information on internals        .... done
Copying old internal coords+grads       .... done
Making the new internal coordinates     .... (new redundants).... done
Validating the new internal coordinates .... (new redundants).... done
Calculating the B-matrix                .... done
Calculating the G,G- and P matrices     .... done
Transforming gradient to internals      .... done
Projecting the internal gradient        .... done
Number of atoms                         ....  13
Number of internal coordinates          ....  57
Current Energy                          ....  -157.514804265 Eh
Current gradient norm                   ....     0.078596689 Eh/bohr
Maximum allowed component of the step   ....  0.300
Current trust radius                    ....  0.300
Evaluating the initial hessian          ....  (Almloef) done
Projecting the Hessian                  .... done
Forming the augmented Hessian           .... done
Diagonalizing the augmented Hessian     .... done
Last element of RFO vector              ....  0.930138704
Lowest eigenvalues of augmented Hessian:
 -0.025314265  0.012007132  0.012948510  0.014028764  0.076397175
Length of the computed step             ....  0.394788834
Warning: the length of the step is outside the trust region - taking restricted step instead
The input lambda is                     ....    -0.025314
   iter:   1  x=   -0.044820  g=    3.376407 f(x)=     0.065858
   iter:   2  x=   -0.057844  g=    1.604597 f(x)=     0.020898
   iter:   3  x=   -0.060785  g=    1.135754 f(x)=     0.003341
   iter:   4  x=   -0.060891  g=    1.060378 f(x)=     0.000113
   iter:   5  x=   -0.060892  g=    1.057801 f(x)=     0.000000
   iter:   6  x=   -0.060892  g=    1.057798 f(x)=     0.000000
   iter:   7  x=   -0.060892  g=    1.057798 f(x)=     0.000000
The output lambda is                    ....    -0.060892 (7 iterations)
The final length of the internal step   ....  0.300000000
Converting the step to cartesian space:
 Initial RMS(Int)=    0.0397359707
Transforming coordinates:
 Iter   0:  RMS(Cart)=    0.0863007870 RMS(Int)=    0.0399161640
 Iter   1:  RMS(Cart)=    0.0040230207 RMS(Int)=    0.0030928769
 Iter   2:  RMS(Cart)=    0.0003443661 RMS(Int)=    0.0002576105
 Iter   3:  RMS(Cart)=    0.0000526294 RMS(Int)=    0.0000424500
 Iter   4:  RMS(Cart)=    0.0000053820 RMS(Int)=    0.0000041178
 Iter   5:  RMS(Cart)=    0.0000008221 RMS(Int)=    0.0000006300
 Iter   6:  RMS(Cart)=    0.0000000876 RMS(Int)=    0.0000000722
done
Storing new coordinates                 .... done

                                .--------------------.
          ----------------------|Geometry convergence|-------------------------
          Item                value                   Tolerance       Converged
          ---------------------------------------------------------------------
          RMS gradient        0.0107747890            0.0001000000      NO
          MAX gradient        0.0360588928            0.0003000000      NO
          RMS step            0.0397359707            0.0020000000      NO
          MAX step            0.1237271398            0.0040000000      NO
          ........................................................
          Max(Bonds)      0.0404      Max(Angles)    6.35
          Max(Dihed)        7.09      Max(Improp)    0.00
          ---------------------------------------------------------------------

The optimization has not yet converged - more geometry cycles are needed


    ---------------------------------------------------------------------------
                         Redundant Internal Coordinates
                            (Angstroem and degrees)

        Definition                    Value    dE/dq     Step     New-Value
    ----------------------------------------------------------------------------
     1. B(C   1,C   0)                1.5100 -0.007818  0.0089    1.5190   
     2. B(C   2,C   0)                1.4979 -0.036059  0.0396    1.5375   
     3. B(C   3,C   0)                1.5181 -0.034406  0.0404    1.5585   
     4. B(H   4,C   0)                1.1169  0.004820 -0.0066    1.1103   
     5. B(H   5,C   1)                1.1194  0.008255 -0.0114    1.1080   
     6. B(H   6,C   1)                1.1150  0.005830 -0.0079    1.1071   
     7. B(H   7,C   2)                1.1183  0.009656 -0.0133    1.1051   
     8. B(H   8,C   2)                1.1200  0.007276 -0.0100    1.1100   
     9. B(H   9,C   2)                1.1071  0.002381 -0.0032    1.1039   
    10. B(H  10,C   3)                1.1024 -0.000336  0.0004    1.1029   
    11. B(H  11,C   3)                1.1090  0.002647 -0.0035    1.1054   
    12. B(H  12,C   3)                1.0982 -0.003067  0.0040    1.1022   
    13. A(C   1,C   0,H   4)          107.27 -0.003520   -0.11    107.17   
    14. A(C   2,C   0,H   4)          113.49  0.009203   -2.43    111.05   
    15. A(C   1,C   0,C   2)          113.08  0.002506   -0.26    112.83   
    16. A(C   1,C   0,C   3)          109.07  0.005940   -0.28    108.79   
    17. A(C   2,C   0,C   3)          108.03 -0.014930    3.07    111.10   
    18. A(C   3,C   0,H   4)          105.57  0.000927    0.06    105.63   
    19. A(H   5,C   1,H   6)          109.38  0.006568    1.88    111.26   
    20. A(C   0,C   1,H   6)          111.79 -0.014054    3.27    115.06   
    21. A(C   0,C   1,H   5)          105.33 -0.033502    6.35    111.68   
    22. A(H   7,C   2,H   9)          109.61  0.001951   -0.79    108.82   
    23. A(C   0,C   2,H   9)          113.65  0.003030   -0.64    113.01   
    24. A(H   7,C   2,H   8)          105.27  0.003943   -0.11    105.16   
    25. A(C   0,C   2,H   8)          107.33 -0.013678    2.34    109.67   
    26. A(H   8,C   2,H   9)          107.67  0.005586   -0.80    106.86   
    27. A(C   0,C   2,H   7)          112.81 -0.000820    0.09    112.90   
    28. A(H  11,C   3,H  12)          113.99  0.013518   -2.52    111.47   
    29. A(H  10,C   3,H  12)          112.01  0.013382   -2.02    109.98   
    30. A(C   0,C   3,H  12)          107.59 -0.017782    2.58    110.17   
    31. A(H  10,C   3,H  11)          107.00  0.004327   -0.27    106.72   
    32. A(C   0,C   3,H  11)          109.51 -0.002639    0.43    109.94   
    33. A(C   0,C   3,H  10)          106.48 -0.012691    2.14    108.62   
    34. D(H   6,C   1,C   0,C   3)    -71.64  0.013956   -4.27    -75.91   
    35. D(H   6,C   1,C   0,H   4)    174.47  0.011760   -4.15    170.32   
    36. D(H   6,C   1,C   0,C   2)     48.58  0.000809   -0.76     47.83   
    37. D(H   5,C   1,C   0,H   4)    -66.83 -0.008118    3.70    -63.13   
    38. D(H   5,C   1,C   0,C   2)    167.28 -0.019068    7.09    174.37   
    39. D(H   5,C   1,C   0,C   3)     47.06 -0.005922    3.57     50.63   
    40. D(H   7,C   2,C   0,C   1)   -125.53 -0.000595   -0.59   -126.12   
    41. D(H   9,C   2,C   0,C   1)      0.04  0.003909   -2.14     -2.10   
    42. D(H   8,C   2,C   0,H   4)     -3.52 -0.000970    0.30     -3.22   
    43. D(H   8,C   2,C   0,C   1)    118.97  0.003474   -1.95    117.02   
    44. D(H   7,C   2,C   0,H   4)    111.99 -0.005039    1.65    113.64   
    45. D(H   7,C   2,C   0,C   3)     -4.71 -0.001844    1.01     -3.71   
    46. D(H   9,C   2,C   0,C   3)    120.86  0.002660   -0.54    120.31   
    47. D(H   9,C   2,C   0,H   4)   -122.45 -0.000536    0.11   -122.34   
    48. D(H   8,C   2,C   0,C   3)   -120.22  0.002225   -0.35   -120.57   
    49. D(H  12,C   3,C   0,H   4)     85.11  0.001798   -1.58     83.53   
    50. D(H  12,C   3,C   0,C   1)    -29.88  0.002614   -1.36    -31.24   
    51. D(H  11,C   3,C   0,H   4)    -39.28 -0.001711   -0.41    -39.69   
    52. D(H  11,C   3,C   0,C   2)     82.44  0.001740   -1.62     80.82   
    53. D(H  11,C   3,C   0,C   1)   -154.27 -0.000896   -0.19   -154.46   
    54. D(H  10,C   3,C   0,H   4)   -154.64  0.001284   -1.44   -156.08   
    55. D(H  12,C   3,C   0,C   2)   -153.16  0.005249   -2.79   -155.96   
    56. D(H  10,C   3,C   0,C   2)    -32.91  0.004736   -2.65    -35.57   
    57. D(H  10,C   3,C   0,C   1)     90.37  0.002100   -1.22     89.15   
    ----------------------------------------------------------------------------

Time needed for optimization step       :     2.27 sec

         *************************************************************
         *                GEOMETRY OPTIMIZATION CYCLE   2            *
         *************************************************************
---------------------------------
CARTESIAN COORDINATES (ANGSTROEM)
---------------------------------
  C     -0.019462    0.055756    0.387227
  C     -0.360328    1.371512   -0.290939
  C      1.414197   -0.413511    0.089966
  C     -1.062726   -1.017386   -0.047311
  H     -0.173779    0.199868    1.477268
  H     -1.425265    1.638924   -0.142397
  H     -0.088838    1.425853   -1.362808
  H      1.454980   -1.441568   -0.313278
  H      1.998822   -0.448442    1.032855
  H      1.954851    0.260166   -0.597410
  H     -0.699043   -1.510032   -0.964568
  H     -1.139331   -1.803249    0.726361
  H     -2.038860   -0.542414   -0.237842

----------------------------
CARTESIAN COORDINATES (A.U.)
----------------------------
  NO LB      ZA    FRAG     MASS         X           Y           Z
   0 C     6.0000    0    12.011   -0.036777    0.105363    0.731754
   1 C     6.0000    0    12.011   -0.680921    2.591781   -0.549794
   2 C     6.0000    0    12.011    2.672446   -0.781423    0.170011
   3 C     6.0000    0    12.011   -2.008260   -1.922581   -0.089405
   4 H     1.0000    0     1.008   -0.328395    0.377696    2.791632
   5 H     1.0000    0     1.008   -2.693361    3.097117   -0.269092
   6 H     1.0000    0     1.008   -0.167880    2.694471   -2.575333
   7 H     1.0000    0     1.008    2.749515   -2.724168   -0.592010
   8 H     1.0000    0     1.008    3.777226   -0.847433    1.951814
   9 H     1.0000    0     1.008    3.694133    0.491642   -1.128940
  10 H     1.0000    0     1.008   -1.321001   -2.853548   -1.822769
  11 H     1.0000    0     1.008   -2.153023   -3.407648    1.372623
  12 H     1.0000    0     1.008   -3.852888   -1.025014   -0.449455

--------------------------------
INTERNAL COORDINATES (ANGSTROEM)
--------------------------------
 C      0   0   0     0.000000000000     0.00000000     0.00000000
 C      1   0   0     1.518983738126     0.00000000     0.00000000
 C      1   2   0     1.537515471622   112.78686213     0.00000000
 C      1   2   3     1.558479044617   108.76905230   236.26821950
 H      1   2   3     1.110302390159   107.13917739   122.48411849
 H      2   1   3     1.108000754705   111.40052686   174.52584411
 H      2   1   3     1.107051378640   114.81935467    47.67375462
 H      3   1   2     1.105065569182   112.88637106   233.88849606
 H      3   1   2     1.109975748595   109.66332328   117.01721561
 H      3   1   2     1.103916478645   113.00458131   357.90694985
 H      4   1   2     1.102871282499   108.58657325    89.17344533
 H      4   1   2     1.105448839179   109.92334871   205.55705743
 H      4   1   2     1.102152199495   110.14081571   328.75692296

---------------------------
INTERNAL COORDINATES (A.U.)
---------------------------
 C      0   0   0     0.000000000000     0.00000000     0.00000000
 C      1   0   0     2.870463266939     0.00000000     0.00000000
 C      1   2   0     2.905483168032   112.78686213     0.00000000
 C      1   2   3     2.945098579782   108.76905230   236.26821950
 H      1   2   3     2.098167443238   107.13917739   122.48411849
 H      2   1   3     2.093817982570   111.40052686   174.52584411
 H      2   1   3     2.092023921809   114.81935467    47.67375462
 H      3   1   2     2.088271285780   112.88637106   233.88849606
 H      3   1   2     2.097550180138   109.66332328   117.01721561
 H      3   1   2     2.086099819362   113.00458131   357.90694985
 H      4   1   2     2.084124684890   108.58657325    89.17344533
 H      4   1   2     2.088995561110   109.92334871   205.55705743
 H      4   1   2     2.082765814945   110.14081571   328.75692296


Diagonalization of the overlap matrix:
Smallest eigenvalue                        ... 2.136e-03
Time for diagonalization                   ...    0.001 sec
Threshold for overlap eigenvalues          ... 1.000e-08
Number of eigenvalues below threshold      ... 0
Time for construction of square roots      ...    1.864 sec
Total time needed                          ...    1.865 sec

-------------------
DFT GRID GENERATION
-------------------

General Integration Accuracy     IntAcc      ...  4.340
Radial Grid Type                 RadialGrid  ... Gauss-Chebyshev
Angular Grid (max. acc.)         AngularGrid ... Lebedev-110
Angular grid pruning method      GridPruning ... 3 (G Style)
Weight generation scheme         WeightScheme... Becke
Basis function cutoff            BFCut       ...    1.0000e-12
Integration weight cutoff        WCut        ...    1.0000e-14
Grids for H and He will be reduced by one unit

# of grid points (after initial pruning)     ...  13770 (   0.0 sec)
# of grid points (after weights+screening)   ...  12886 (   0.0 sec)
nearest neighbour list constructed           ...    0.0 sec
Grid point re-assignment to atoms done       ...    0.0 sec
Grid point division into batches done        ...    0.0 sec
Reduced shell lists constructed in    0.1 sec

Total number of grid points                  ...    12886
Total number of batches                      ...      208
Average number of points per batch           ...       61
Average number of grid points per atom       ...      991
Average number of shells per batch           ...    37.24 (88.66%)
Average number of basis functions per batch  ...    66.29 (89.58%)
Average number of large shells per batch     ...    32.60 (87.55%)
Average number of large basis fcns per batch ...    57.58 (86.86%)
Maximum spatial batch extension              ...  20.67, 22.44, 19.90 au
Average spatial batch extension              ...   4.19,  4.07,  3.98 au

Time for grid setup =    1.435 sec

--------------
SCF ITERATIONS
--------------
ITER       Energy         Delta-E        Max-DP      RMS-DP      [F,P]     Damp
               ***  Starting incremental Fock matrix formation  ***
  0   -157.5115567866   0.000000000000 0.00467610  0.00018852  0.0207680 0.7000
  1   -157.5123838941  -0.000827107501 0.00438240  0.00017242  0.0147936 0.7000
                               ***Turning on DIIS***
  2   -157.5130238606  -0.000639966542 0.01144430  0.00044881  0.0101495 0.0000
  3   -157.5146500297  -0.001626169116 0.00163130  0.00008838  0.0023862 0.0000
  4   -157.5146952570  -0.000045227301 0.00089548  0.00004567  0.0012522 0.0000
  5   -157.5147076370  -0.000012379940 0.00114312  0.00004900  0.0007062 0.0000
  6   -157.5147129222  -0.000005285261 0.00030123  0.00001280  0.0002047 0.0000
  7   -157.5147134179  -0.000000495647 0.00006845  0.00000356  0.0000652 0.0000
  8   -157.5147134614  -0.000000043491 0.00003115  0.00000133  0.0000429 0.0000
  9   -157.5147134701  -0.000000008747 0.00000552  0.00000032  0.0000054 0.0000
 10   -157.5147134706  -0.000000000517 0.00000231  0.00000013  0.0000031 0.0000
 11   -157.5147134707  -0.000000000084 0.00000103  0.00000005  0.0000007 0.0000
 12   -157.5147134707  -0.000000000013 0.00000041  0.00000002  0.0000005 0.0000
 13   -157.5147134707  -0.000000000004 0.00000024  0.00000001  0.0000002 0.0000
 14   -157.5147134707  -0.000000000001 0.00000009  0.00000000  0.0000001 0.0000
 15   -157.5147134707  -0.000000000014 0.00000004  0.00000000  0.0000001 0.0000
                 **** Energy Check signals convergence ****

 Fermi smearing  (ALPHA): E(HOMO(Eh)) = -0.324555 MUE = -0.080843 gap=   7.594 eV
 Fermi smearing   (BETA): E(HOMO(Eh)) = -0.319642 MUE = -0.188372 gap=   7.112 eV

N_FOD(alpha) =  0.000000
 N_FOD(beta) =  0.000000
       N_FOD =  0.000000

               *****************************************************
               *                     SUCCESS                       *
               *           SCF CONVERGED AFTER  16 CYCLES          *
               *****************************************************

Setting up the final grid:

General Integration Accuracy     IntAcc      ...  4.670
Radial Grid Type                 RadialGrid  ... Gauss-Chebyshev
Angular Grid (max. acc.)         AngularGrid ... Lebedev-302
Angular grid pruning method      GridPruning ... 3 (G Style)
Weight generation scheme         WeightScheme... Becke
Basis function cutoff            BFCut       ...    1.0000e-12
Integration weight cutoff        WCut        ...    1.0000e-14
Grids for H and He will be reduced by one unit

# of grid points (after initial pruning)     ...  55394 (   0.0 sec)
# of grid points (after weights+screening)   ...  51241 (   0.1 sec)
nearest neighbour list constructed           ...    0.0 sec
Grid point re-assignment to atoms done       ...    0.0 sec
Grid point division into batches done        ...    0.1 sec
Reduced shell lists constructed in    0.3 sec

Total number of grid points                  ...    51241
Total number of batches                      ...      805
Average number of points per batch           ...       63
Average number of grid points per atom       ...     3942
Average number of shells per batch           ...    34.91 (83.12%)
Average number of basis functions per batch  ...    61.99 (83.77%)
Average number of large shells per batch     ...    29.92 (85.71%)
Average number of large basis fcns per batch ...    52.64 (84.92%)
Maximum spatial batch extension              ...  22.19, 18.89, 19.20 au
Average spatial batch extension              ...   2.67,  2.61,  2.57 au

Final grid set up in    3.2 sec
Final integration                            ... done (   9.3 sec)
Change in XC energy                          ...     0.000116859
Integrated number of electrons               ...    33.000133168
Previous integrated no of electrons          ...    32.999568139
Total Energy       :         -157.51459661 Eh           -4286.19008 eV
  Last Energy change         ...    2.6859e-11  Tolerance :   1.0000e-09
  Last MAX-Density change    ...    2.1030e-08  Tolerance :   1.0000e-08
             **** THE GBW FILE WAS UPDATED (orca5.gbw) ****
             **** DENSITY FILE WAS UPDATED (orca5.scfp) ****
             **** ENERGY FILE WAS UPDATED (orca5.en.tmp) ****
             **** THE GBW FILE WAS UPDATED (orca5.gbw) ****
             **** DENSITY FILE WAS UPDATED (orca5.scfp) ****
Total SCF time: 0 days 0 hours 10 min 16 sec 


-------------------------------------------------------------------------------
                          DFT DISPERSION CORRECTION                            
                                                                               
                              DFTD3 V3.1  Rev 1                                
                          USING Becke-Johnson damping                          
-------------------------------------------------------------------------------
-------------------------   ----------------
Dispersion correction           -0.014474401
-------------------------   ----------------


-------------------------   --------------------
FINAL SINGLE POINT ENERGY      -157.529071012614
-------------------------   --------------------

------------------------------------------------------------------------------
                         ORCA SCF GRADIENT CALCULATION
------------------------------------------------------------------------------

Gradient of the Kohn-Sham DFT energy:
Kohn-Sham wavefunction type      ... UKS
Hartree-Fock exchange scaling    ...    0.200
Number of operators              ...    2
Number of atoms                  ...   13
Basis set dimensions             ...   74
Integral neglect threshold       ... 1.0e-12
Integral primitive cutoff        ... 1.0e-14

Nuclear repulsion gradient       ... done
One Electron Gradient            ... done
Pre-screening matrix             ... done
Starting the two electron gradient:
Two electron gradient done
Exchange-correlation gradient    ... done
Dispersion correction            ... done

------------------
CARTESIAN GRADIENT
------------------

   1   C   :    0.005347321   -0.009636904    0.003852266
   2   C   :    0.016385891    0.023677866    0.009818821
   3   C   :   -0.009736463    0.003124078   -0.016036671
   4   C   :   -0.009704308   -0.002497698   -0.000363050
   5   H   :   -0.003595407    0.000041535    0.001311832
   6   H   :   -0.006447358   -0.010556399   -0.004360469
   7   H   :   -0.006124943   -0.006203674   -0.004097094
   8   H   :    0.001462158   -0.001575940    0.002421128
   9   H   :   -0.001429686   -0.001302836    0.003727918
  10   H   :    0.001652778    0.000444751    0.001399467
  11   H   :    0.004991814   -0.000972725    0.003955345
  12   H   :    0.003737679   -0.000286749    0.000147640
  13   H   :    0.003460524    0.005744696   -0.001777131

Difference to translation invariance:
           :   -0.0000000000    0.0000000000    0.0000000000

Norm of the cartesian gradient     ...    0.0440489887
RMS gradient                       ...    0.0070534832
MAX gradient                       ...    0.0236778660

-------
TIMINGS
-------

Total SCF gradient time            ...        3.908 sec

One electron gradient       ....       0.027 sec  (  0.7%)
Prescreening matrices       ....       0.026 sec  (  0.7%)
Two electron gradient       ....       1.377 sec  ( 35.2%)
XC gradient                 ....       2.303 sec  ( 58.9%)
------------------------------------------------------------------------------
                         ORCA GEOMETRY RELAXATION STEP
------------------------------------------------------------------------------

Reading the OPT-File                    .... done
Getting information on internals        .... done
Copying old internal coords+grads       .... done
Making the new internal coordinates     .... (new redundants).... done
Validating the new internal coordinates .... (new redundants).... done
Calculating the B-matrix                .... done
Calculating the G,G- and P matrices     .... done
Transforming gradient to internals      .... done
Projecting the internal gradient        .... done
Number of atoms                         ....  13
Number of internal coordinates          ....  57
Current Energy                          ....  -157.529071013 Eh
Current gradient norm                   ....     0.044048989 Eh/bohr
Maximum allowed component of the step   ....  0.300
Current trust radius                    ....  0.300
Updating the Hessian (BFGS)             .... done
Forming the augmented Hessian           .... done
Diagonalizing the augmented Hessian     .... done
Last element of RFO vector              ....  0.948530373
Lowest eigenvalues of augmented Hessian:
 -0.007953267  0.012006458  0.012802278  0.014020922  0.074579370
Length of the computed step             ....  0.333870353
Warning: the length of the step is outside the trust region - taking restricted step instead
The input lambda is                     ....    -0.007953
   iter:   1  x=   -0.012215  g=    5.037424 f(x)=     0.021469
   iter:   2  x=   -0.013346  g=    3.409005 f(x)=     0.003854
   iter:   3  x=   -0.013399  g=    3.123192 f(x)=     0.000166
   iter:   4  x=   -0.013399  g=    3.110806 f(x)=     0.000000
   iter:   5  x=   -0.013399  g=    3.110781 f(x)=     0.000000
   iter:   6  x=   -0.013399  g=    3.110781 f(x)=    -0.000000
The output lambda is                    ....    -0.013399 (6 iterations)
The final length of the internal step   ....  0.300000000
Converting the step to cartesian space:
 Initial RMS(Int)=    0.0397359707
Transforming coordinates:
 Iter   0:  RMS(Cart)=    0.0559614400 RMS(Int)=    0.8162569822
 Iter   1:  RMS(Cart)=    0.0033563962 RMS(Int)=    0.0027136582
 Iter   2:  RMS(Cart)=    0.0002844245 RMS(Int)=    0.0002252116
 Iter   3:  RMS(Cart)=    0.0000399015 RMS(Int)=    0.0000338506
 Iter   4:  RMS(Cart)=    0.0000040690 RMS(Int)=    0.0000031168
 Iter   5:  RMS(Cart)=    0.0000005799 RMS(Int)=    0.0000004708
 Iter   6:  RMS(Cart)=    0.0000000614 RMS(Int)=    0.0000000507
done
Storing new coordinates                 .... done

                                .--------------------.
          ----------------------|Geometry convergence|-------------------------
          Item                value                   Tolerance       Converged
          ---------------------------------------------------------------------
          Energy change      -0.0142667474            0.0000050000      NO
          RMS gradient        0.0039143163            0.0001000000      NO
          MAX gradient        0.0139101136            0.0003000000      NO
          RMS step            0.0397359707            0.0020000000      NO
          MAX step            0.1194162657            0.0040000000      NO
          ........................................................
          Max(Bonds)      0.0117      Max(Angles)    5.26
          Max(Dihed)        6.84      Max(Improp)    0.00
          ---------------------------------------------------------------------

The optimization has not yet converged - more geometry cycles are needed


    ---------------------------------------------------------------------------
                         Redundant Internal Coordinates
                            (Angstroem and degrees)

        Definition                    Value    dE/dq     Step     New-Value
    ----------------------------------------------------------------------------
     1. B(C   1,C   0)                1.5190  0.004527 -0.0087    1.5103   
     2. B(C   2,C   0)                1.5375 -0.006080  0.0117    1.5492   
     3. B(C   3,C   0)                1.5585 -0.003570  0.0073    1.5658   
     4. B(H   4,C   0)                1.1103  0.001794 -0.0042    1.1061   
     5. B(H   5,C   1)                1.1080  0.003061 -0.0072    1.1008   
     6. B(H   6,C   1)                1.1071  0.002153 -0.0050    1.1021   
     7. B(H   7,C   2)                1.1051  0.000639 -0.0014    1.1037   
     8. B(H   8,C   2)                1.1100  0.002459 -0.0058    1.1042   
     9. B(H   9,C   2)                1.1039  0.000202 -0.0004    1.1035   
    10. B(H  10,C   3)                1.1029 -0.001202  0.0027    1.1056   
    11. B(H  11,C   3)                1.1054  0.000038 -0.0001    1.1054   
    12. B(H  12,C   3)                1.1022 -0.000277  0.0006    1.1027   
    13. A(C   1,C   0,H   4)          107.14 -0.001089    0.40    107.54   
    14. A(C   2,C   0,H   4)          111.04  0.003461   -1.83    109.21   
    15. A(C   1,C   0,C   2)          112.79  0.000828   -0.29    112.49   
    16. A(C   1,C   0,C   3)          108.77  0.000004    0.52    109.29   
    17. A(C   2,C   0,C   3)          111.11 -0.002546    0.77    111.87   
    18. A(C   3,C   0,H   4)          105.67 -0.000744    0.53    106.19   
    19. A(H   5,C   1,H   6)          110.71  0.002432    3.17    113.88   
    20. A(C   0,C   1,H   6)          114.82 -0.005612    2.92    117.74   
    21. A(C   0,C   1,H   5)          111.40 -0.013910    5.26    116.66   
    22. A(H   7,C   2,H   9)          108.81 -0.000336   -0.65    108.16   
    23. A(C   0,C   2,H   9)          113.00  0.002724   -1.01    112.00   
    24. A(H   7,C   2,H   8)          105.14 -0.000539    0.88    106.02   
    25. A(C   0,C   2,H   8)          109.66 -0.005265    1.74    111.41   
    26. A(H   8,C   2,H   9)          106.87  0.001029   -0.07    106.80   
    27. A(C   0,C   2,H   7)          112.89  0.002090   -0.67    112.22   
    28. A(H  11,C   3,H  12)          111.47  0.006250   -2.19    109.28   
    29. A(H  10,C   3,H  12)          109.92  0.005498   -1.48    108.45   
    30. A(C   0,C   3,H  12)          110.14 -0.006552    1.48    111.62   
    31. A(H  10,C   3,H  11)          106.70  0.000699    0.49    107.19   
    32. A(C   0,C   3,H  11)          109.92 -0.001540    0.45    110.38   
    33. A(C   0,C   3,H  10)          108.59 -0.004337    1.40    109.98   
    34. D(H   6,C   1,C   0,C   3)    -76.06  0.006543   -3.63    -79.68   
    35. D(H   6,C   1,C   0,H   4)    170.16  0.007959   -4.70    165.46   
    36. D(H   6,C   1,C   0,C   2)     47.67  0.003845   -2.47     45.20   
    37. D(H   5,C   1,C   0,H   4)    -62.99 -0.005497    4.61    -58.38   
    38. D(H   5,C   1,C   0,C   2)    174.53 -0.009611    6.84    181.37   
    39. D(H   5,C   1,C   0,C   3)     50.79 -0.006913    5.69     56.48   
    40. D(H   7,C   2,C   0,C   1)   -126.11 -0.000844    0.16   -125.95   
    41. D(H   9,C   2,C   0,C   1)     -2.09  0.002538   -2.12     -4.21   
    42. D(H   8,C   2,C   0,H   4)     -3.25  0.000358   -0.58     -3.83   
[...]
 H      3   1   2     2.089627955971   111.24469684    72.33326096
 H      3   1   2     2.086912971719   111.52015915   312.24197202
 H      4   1   2     2.089724760671   110.07509710    49.80198989
 H      4   1   2     2.085678818326   110.66955013   168.03289830
 H      4   1   2     2.084563825883   110.78564177   289.94877690


Diagonalization of the overlap matrix:
Smallest eigenvalue                        ... 2.383e-03
Time for diagonalization                   ...    0.001 sec
Threshold for overlap eigenvalues          ... 1.000e-08
Number of eigenvalues below threshold      ... 0
Time for construction of square roots      ...    0.058 sec
Total time needed                          ...    0.059 sec

-------------------
DFT GRID GENERATION
-------------------

General Integration Accuracy     IntAcc      ...  4.340
Radial Grid Type                 RadialGrid  ... Gauss-Chebyshev
Angular Grid (max. acc.)         AngularGrid ... Lebedev-110
Angular grid pruning method      GridPruning ... 3 (G Style)
Weight generation scheme         WeightScheme... Becke
Basis function cutoff            BFCut       ...    1.0000e-12
Integration weight cutoff        WCut        ...    1.0000e-14
Grids for H and He will be reduced by one unit

# of grid points (after initial pruning)     ...  13770 (   0.0 sec)
# of grid points (after weights+screening)   ...  12886 (   0.0 sec)
nearest neighbour list constructed           ...    0.0 sec
Grid point re-assignment to atoms done       ...    0.0 sec
Grid point division into batches done        ...    0.0 sec
Reduced shell lists constructed in    0.2 sec

Total number of grid points                  ...    12886
Total number of batches                      ...      210
Average number of points per batch           ...       61
Average number of grid points per atom       ...      991
Average number of shells per batch           ...    37.15 (88.46%)
Average number of basis functions per batch  ...    66.11 (89.34%)
Average number of large shells per batch     ...    32.52 (87.54%)
Average number of large basis fcns per batch ...    57.49 (86.96%)
Maximum spatial batch extension              ...  20.71, 22.36, 21.99 au
Average spatial batch extension              ...   3.90,  4.09,  3.92 au

Time for grid setup =    0.399 sec

--------------
SCF ITERATIONS
--------------
ITER       Energy         Delta-E        Max-DP      RMS-DP      [F,P]     Damp
               ***  Starting incremental Fock matrix formation  ***
  0   -157.5282639649   0.000000000000 0.00055215  0.00001719  0.0022023 0.7000
  1   -157.5282737424  -0.000009777529 0.00052603  0.00001684  0.0018447 0.7000
                               ***Turning on DIIS***
  2   -157.5282818757  -0.000008133264 0.00139152  0.00004664  0.0014812 0.0000
  3   -157.5283040210  -0.000022145349 0.00047597  0.00001819  0.0004642 0.0000
  4   -157.5283054052  -0.000001384137 0.00011107  0.00000451  0.0001128 0.0000
  5   -157.5283054867  -0.000000081515 0.00004727  0.00000203  0.0000599 0.0000
  6   -157.5283055118  -0.000000025085 0.00001418  0.00000056  0.0000099 0.0000
  7   -157.5283055129  -0.000000001136 0.00000240  0.00000014  0.0000029 0.0000
  8   -157.5283055130  -0.000000000074 0.00000077  0.00000004  0.0000012 0.0000
  9   -157.5283055130  -0.000000000011 0.00000021  0.00000001  0.0000003 0.0000
                 **** Energy Check signals convergence ****

 Fermi smearing  (ALPHA): E(HOMO(Eh)) = -0.331067 MUE = -0.071771 gap=   7.137 eV
 Fermi smearing   (BETA): E(HOMO(Eh)) = -0.328491 MUE = -0.184644 gap=   7.715 eV

N_FOD(alpha) =  0.000000
 N_FOD(beta) =  0.000000
       N_FOD =  0.000000

               *****************************************************
               *                     SUCCESS                       *
               *           SCF CONVERGED AFTER  10 CYCLES          *
               *****************************************************

Setting up the final grid:

General Integration Accuracy     IntAcc      ...  4.670
Radial Grid Type                 RadialGrid  ... Gauss-Chebyshev
Angular Grid (max. acc.)         AngularGrid ... Lebedev-302
Angular grid pruning method      GridPruning ... 3 (G Style)
Weight generation scheme         WeightScheme... Becke
Basis function cutoff            BFCut       ...    1.0000e-12
Integration weight cutoff        WCut        ...    1.0000e-14
Grids for H and He will be reduced by one unit

# of grid points (after initial pruning)     ...  55394 (   0.0 sec)
# of grid points (after weights+screening)   ...  51294 (   0.4 sec)
nearest neighbour list constructed           ...    0.0 sec
Grid point re-assignment to atoms done       ...    0.0 sec
Grid point division into batches done        ...    0.4 sec
Reduced shell lists constructed in    1.3 sec

Total number of grid points                  ...    51294
Total number of batches                      ...      809
Average number of points per batch           ...       63
Average number of grid points per atom       ...     3946
Average number of shells per batch           ...    34.74 (82.70%)
Average number of basis functions per batch  ...    61.69 (83.37%)
Average number of large shells per batch     ...    29.85 (85.94%)
Average number of large basis fcns per batch ...    52.35 (84.86%)
Maximum spatial batch extension              ...  23.30, 19.65, 19.81 au
Average spatial batch extension              ...   2.62,  2.63,  2.59 au

Final grid set up in    1.8 sec
Final integration                            ... done (   2.0 sec)
Change in XC energy                          ...    -0.000203398
Integrated number of electrons               ...    32.999979961
Previous integrated no of electrons          ...    32.996493562
Total Energy       :         -157.52850891 Eh           -4286.56865 eV
  Last Energy change         ...    2.2766e-11  Tolerance :   1.0000e-09
  Last MAX-Density change    ...    7.6315e-08  Tolerance :   1.0000e-08
             **** THE GBW FILE WAS UPDATED (orca5.gbw) ****
             **** DENSITY FILE WAS UPDATED (orca5.scfp) ****
             **** ENERGY FILE WAS UPDATED (orca5.en.tmp) ****
             **** THE GBW FILE WAS UPDATED (orca5.gbw) ****
             **** DENSITY FILE WAS UPDATED (orca5.scfp) ****
Total SCF time: 0 days 0 hours 0 min 54 sec 


-------------------------------------------------------------------------------
                          DFT DISPERSION CORRECTION                            
                                                                               
                              DFTD3 V3.1  Rev 1                                
                          USING Becke-Johnson damping                          
-------------------------------------------------------------------------------
-------------------------   ----------------
Dispersion correction           -0.014319790
-------------------------   ----------------


-------------------------   --------------------
FINAL SINGLE POINT ENERGY      -157.542828701551
-------------------------   --------------------

------------------------------------------------------------------------------
                         ORCA SCF GRADIENT CALCULATION
------------------------------------------------------------------------------

Gradient of the Kohn-Sham DFT energy:
Kohn-Sham wavefunction type      ... UKS
Hartree-Fock exchange scaling    ...    0.200
Number of operators              ...    2
Number of atoms                  ...   13
Basis set dimensions             ...   74
Integral neglect threshold       ... 1.0e-12
Integral primitive cutoff        ... 1.0e-14

Nuclear repulsion gradient       ... done
One Electron Gradient            ... done
Pre-screening matrix             ... done
Starting the two electron gradient:
Two electron gradient done
Exchange-correlation gradient    ... done
Dispersion correction            ... done

------------------
CARTESIAN GRADIENT
------------------

   1   C   :    0.006146284   -0.001119049    0.005882382
   2   C   :    0.001331626   -0.002540568   -0.003409099
   3   C   :   -0.001242465   -0.000407154   -0.003380228
   4   C   :   -0.008785001   -0.003724195    0.001897305
   5   H   :   -0.001976881    0.003011403   -0.001398921
   6   H   :   -0.000263317    0.001020288    0.000675567
   7   H   :   -0.001438024    0.001787554    0.000063682
   8   H   :    0.000362040    0.000271931    0.000200286
   9   H   :    0.000591860   -0.001434812    0.001498884
  10   H   :    0.001034003    0.001432284    0.000753916
  11   H   :    0.000607898    0.000250776   -0.000162735
  12   H   :    0.002607924    0.000386748   -0.002911770
  13   H   :    0.001024052    0.001064794    0.000290730

Difference to translation invariance:
           :   -0.0000000000    0.0000000000    0.0000000000

Norm of the cartesian gradient     ...    0.0158042638
RMS gradient                       ...    0.0025307076
MAX gradient                       ...    0.0087850006

-------
TIMINGS
-------

Total SCF gradient time            ...       14.162 sec

One electron gradient       ....       0.162 sec  (  1.1%)
Prescreening matrices       ....       0.166 sec  (  1.2%)
Two electron gradient       ....       4.823 sec  ( 34.1%)
XC gradient                 ....       8.423 sec  ( 59.5%)
------------------------------------------------------------------------------
                         ORCA GEOMETRY RELAXATION STEP
------------------------------------------------------------------------------

Reading the OPT-File                    .... done
Getting information on internals        .... done
Copying old internal coords+grads       .... done
Making the new internal coordinates     .... (new redundants).... done
Validating the new internal coordinates .... (new redundants).... done
Calculating the B-matrix                .... done
Calculating the G,G- and P matrices     .... done
Transforming gradient to internals      .... done
Projecting the internal gradient        .... done
Number of atoms                         ....  13
Number of internal coordinates          ....  57
Current Energy                          ....  -157.542828702 Eh
Current gradient norm                   ....     0.015804264 Eh/bohr
Maximum allowed component of the step   ....  0.300
Current trust radius                    ....  0.300
Resetting Hessian after 50 BFGS Update Steps....
Build internal Hessian                  .... (Almloef) done
Updating Hessian with the last 5 steps  .... done
Forming the augmented Hessian           .... done
Diagonalizing the augmented Hessian     .... done
Last element of RFO vector              ....  0.959696477
Lowest eigenvalues of augmented Hessian:
 -0.001281068  0.004614987  0.009116645  0.010827197  0.018006706
Length of the computed step             ....  0.292841087
The final length of the internal step   ....  0.292841087
Converting the step to cartesian space:
 Initial RMS(Int)=    0.0387877495
Transforming coordinates:
 Iter   0:  RMS(Cart)=    0.0427961495 RMS(Int)=    0.0387671519
 Iter   1:  RMS(Cart)=    0.0010264537 RMS(Int)=    0.0007947007
 Iter   2:  RMS(Cart)=    0.0000488672 RMS(Int)=    0.0000414417
 Iter   3:  RMS(Cart)=    0.0000024752 RMS(Int)=    0.0000019680
 Iter   4:  RMS(Cart)=    0.0000001279 RMS(Int)=    0.0000001119
 Iter   5:  RMS(Cart)=    0.0000000069 RMS(Int)=    0.0000000055
done
Storing new coordinates                 .... done

                                .--------------------.
          ----------------------|Geometry convergence|-------------------------
          Item                value                   Tolerance       Converged
          ---------------------------------------------------------------------
          Energy change      -0.0000174466            0.0000050000      NO
          RMS gradient        0.0011837776            0.0001000000      NO
          MAX gradient        0.0046705474            0.0003000000      NO
          RMS step            0.0387877495            0.0020000000      NO
          MAX step            0.0846275084            0.0040000000      NO
          ........................................................
          Max(Bonds)      0.0072      Max(Angles)    0.65
          Max(Dihed)        4.85      Max(Improp)    0.00
          ---------------------------------------------------------------------

The optimization has not yet converged - more geometry cycles are needed


    ---------------------------------------------------------------------------
                         Redundant Internal Coordinates
                            (Angstroem and degrees)

        Definition                    Value    dE/dq     Step     New-Value
    ----------------------------------------------------------------------------
     1. B(C   1,C   0)                1.5013  0.001629 -0.0024    1.4989   
     2. B(C   2,C   0)                1.5382  0.000860 -0.0014    1.5369   
     3. B(C   3,C   0)                1.5526  0.004671 -0.0072    1.5454   
     4. B(H   4,C   0)                1.1139 -0.000489  0.0008    1.1146   
     5. B(H   5,C   1)                1.0982  0.000403 -0.0006    1.0976   
     6. B(H   6,C   1)                1.0981  0.000298 -0.0005    1.0976   
     7. B(H   7,C   2)                1.1049 -0.000134  0.0002    1.1051   
     8. B(H   8,C   2)                1.1058  0.000286 -0.0004    1.1054   
     9. B(H   9,C   2)                1.1043 -0.000429  0.0007    1.1050   
    10. B(H  10,C   3)                1.1058  0.000102 -0.0001    1.1058   
    11. B(H  11,C   3)                1.1037 -0.000577  0.0009    1.1045   
    12. B(H  12,C   3)                1.1031 -0.000583  0.0009    1.1040   
    13. A(C   1,C   0,H   4)          106.82 -0.000301    0.25    107.07   
    14. A(C   2,C   0,H   4)          108.27  0.000547   -0.48    107.80   
    15. A(C   1,C   0,C   2)          111.72  0.000555   -0.03    111.69   
    16. A(C   1,C   0,C   3)          110.05 -0.001927    0.65    110.70   
    17. A(C   2,C   0,C   3)          112.74  0.001108   -0.40    112.34   
    18. A(C   3,C   0,H   4)          106.93 -0.000029    0.01    106.94   
    19. A(H   5,C   1,H   6)          116.20 -0.001732    0.65    116.85   
    20. A(C   0,C   1,H   6)          121.42  0.002248   -0.08    121.34   
    21. A(C   0,C   1,H   5)          119.69 -0.000736    0.39    120.08   
    22. A(H   7,C   2,H   9)          108.39  0.000071   -0.20    108.19   
    23. A(C   0,C   2,H   9)          111.52  0.001040   -0.26    111.26   
    24. A(H   7,C   2,H   8)          106.66 -0.001184    0.49    107.15   
    25. A(C   0,C   2,H   8)          111.24  0.000578    0.05    111.29   
    26. A(H   8,C   2,H   9)          107.57 -0.000684    0.03    107.60   
    27. A(C   0,C   2,H   7)          111.25  0.000051   -0.09    111.17   
    28. A(H  11,C   3,H  12)          109.71  0.002370   -0.64    109.07   
    29. A(H  10,C   3,H  12)          108.38  0.001074   -0.26    108.12   
    30. A(C   0,C   3,H  12)          110.79 -0.001067   -0.01    110.78   
    31. A(H  10,C   3,H  11)          107.13 -0.000227    0.32    107.45   
    32. A(C   0,C   3,H  11)          110.67 -0.001228    0.32    110.99   
    33. A(C   0,C   3,H  10)          110.08 -0.000833    0.25    110.32   
    34. D(H   6,C   1,C   0,C   3)   -162.91 -0.001131    1.67   -161.24   
    35. D(H   6,C   1,C   0,H   4)     81.36  0.000055    1.19     82.55   
    36. D(H   6,C   1,C   0,C   2)    -36.87 -0.000732    1.62    -35.25   
    37. D(H   5,C   1,C   0,H   4)    -79.38  0.001158   -2.24    -81.62   
    38. D(H   5,C   1,C   0,C   2)    162.39  0.000371   -1.81    160.58   
    39. D(H   5,C   1,C   0,C   3)     36.35 -0.000028   -1.76     34.59   
    40. D(H   7,C   2,C   0,C   1)   -168.90  0.000612   -3.45   -172.35   
    41. D(H   9,C   2,C   0,C   1)    -47.76  0.001459   -3.94    -51.70   
    42. D(H   8,C   2,C   0,H   4)    -45.03  0.001396   -4.04    -49.06   
    43. D(H   8,C   2,C   0,C   1)     72.33  0.001688   -4.04     68.29   
    44. D(H   7,C   2,C   0,H   4)     73.74  0.000320   -3.44     70.29   
    45. D(H   7,C   2,C   0,C   3)    -44.35 -0.000662   -2.91    -47.26   
    46. D(H   9,C   2,C   0,C   3)     76.79  0.000184   -3.40     73.39   
    47. D(H   9,C   2,C   0,H   4)   -165.12  0.001167   -3.94   -169.06   
    48. D(H   8,C   2,C   0,C   3)   -163.12  0.000414   -3.50   -166.62   
    49. D(H  12,C   3,C   0,H   4)     45.61 -0.001171    4.26     49.87   
    50. D(H  12,C   3,C   0,C   1)    -70.05  0.000189    3.62    -66.43   
    51. D(H  11,C   3,C   0,H   4)    -76.30 -0.002613    4.85    -71.45   
    52. D(H  11,C   3,C   0,C   2)     42.57 -0.001318    4.04     46.62   
    53. D(H  11,C   3,C   0,C   1)    168.03 -0.001252    4.22    172.25   
    54. D(H  10,C   3,C   0,H   4)    165.47 -0.001055    4.09    169.56   
    55. D(H  12,C   3,C   0,C   2)    164.49  0.000123    3.45    167.94   
    56. D(H  10,C   3,C   0,C   2)    -75.66  0.000240    3.29    -72.37   
    57. D(H  10,C   3,C   0,C   1)     49.80  0.000306    3.46     53.26   
    ----------------------------------------------------------------------------




    ----------------------------------------------------------------------------
                                  WARNING !!!
       The optimization did not converge but reached the maximum number of
       optimization cycles.
       Please check your results very carefully.
    ----------------------------------------------------------------------------



                            ***************************************
                            *     ORCA property calculations      *
                            ***************************************

                                    ---------------------
                                    Active property flags
                                    ---------------------
   (+) Dipole Moment


------------------------------------------------------------------------------
                       ORCA ELECTRIC PROPERTIES CALCULATION
------------------------------------------------------------------------------

Dipole Moment Calculation                       ... on
Quadrupole Moment Calculation                   ... off
Polarizability Calculation                      ... off
GBWName                                         ... orca5.gbw
Electron density file                           ... orca5.scfp
The origin for moment calculation is the CENTER OF MASS  = (-0.065933, -0.167629 -0.037510)

-------------
DIPOLE MOMENT
-------------
                                X             Y             Z
Electronic contribution:     -0.26875       1.05629       0.11466
Nuclear contribution   :      0.27528      -1.09720       0.01554
                        -----------------------------------------
Total Dipole Moment    :      0.00653      -0.04091       0.13020
                        -----------------------------------------
Magnitude (a.u.)       :      0.13663
Magnitude (Debye)      :      0.34729



--------------------
Rotational spectrum 
--------------------
 
Rotational constants in cm-1:     0.280359     0.259037     0.152377 
Rotational constants in MHz :  8404.945223  7765.730506  4568.158407 

 Dipole components along the rotational axes: 
x,y,z [a.u.] :     0.009683    -0.064413     0.120105 
x,y,z [Debye]:     0.024611    -0.163724     0.305283 

 

Timings for individual modules:

Sum of individual times         ...    10051.324 sec (= 167.522 min)
GTO integral calculation        ...      231.823 sec (=   3.864 min)   2.3 %
SCF iterations                  ...     9409.505 sec (= 156.825 min)  93.6 %
SCF Gradient evaluation         ...      303.459 sec (=   5.058 min)   3.0 %
Geometry relaxation             ...      106.537 sec (=   1.776 min)   1.1 %
                             ****ORCA TERMINATED NORMALLY****
TOTAL RUN TIME: 0 days 2 hours 53 minutes 20 seconds 449 msec
